# vtk DataFile Version 3.0
vtk output
ASCII
DATASET RECTILINEAR_GRID
FIELD FieldData 2
base_index 1 3 int
34 34 68 
avtOriginalBounds 1 6 double
-3.33333 3.33333 -3.33333 3.33333 3.33333 10 
DIMENSIONS 34 34 34
X_COORDINATES 34 float
-3.33333 -3.13131 -2.92929 -2.72727 -2.52525 -2.32323 -2.12121 -1.91919 -1.71717 
-1.51515 -1.31313 -1.11111 -0.909091 -0.707071 -0.505051 -0.30303 -0.10101 0.10101 
0.30303 0.50505 0.70707 0.909091 1.11111 1.31313 1.51515 1.71717 1.91919 
2.12121 2.32323 2.52525 2.72727 2.92929 3.13131 3.33333 
Y_COORDINATES 34 float
-3.33333 -3.13131 -2.92929 -2.72727 -2.52525 -2.32323 -2.12121 -1.91919 -1.71717 
-1.51515 -1.31313 -1.11111 -0.909091 -0.707071 -0.505051 -0.30303 -0.10101 0.10101 
0.30303 0.50505 0.70707 0.909091 1.11111 1.31313 1.51515 1.71717 1.91919 
2.12121 2.32323 2.52525 2.72727 2.92929 3.13131 3.33333 
Z_COORDINATES 34 float
3.33333 3.53535 3.73737 3.93939 4.14141 4.34343 4.54545 4.74747 4.94949 
5.15152 5.35354 5.55556 5.75758 5.9596 6.16162 6.36364 6.56566 6.76768 
6.9697 7.17172 7.37374 7.57576 7.77778 7.9798 8.18182 8.38384 8.58586 
8.78788 8.9899 9.19192 9.39394 9.59596 9.79798 10 
POINT_DATA 39304
FIELD FieldData 1
grad 3 39304 float
0.0788116 -0.0279864 0.0547989 0.0710056 -0.023625 0.0553213 0.064344 -0.0197729 0.0553802 
0.0582906 -0.0161913 0.0551929 0.0534359 -0.0130451 0.0546513 0.0492773 -0.0101516 0.0539039 
0.0462612 -0.0076774 0.0529743 0.0439687 -0.00546877 0.0519293 0.0426318 -0.00367801 0.0508812 
0.041954 -0.00217544 0.0498308 0.0419366 -0.00107586 0.0489187 0.0424146 -0.000278516 0.0481104 
0.043199 0.000160738 0.0475193 0.0442329 0.000308218 0.0471053 0.0452191 0.000180398 0.0469183 
0.0461631 -0.000190958 0.0469322 0.0467613 -0.00071828 0.0471184 0.0470278 -0.00139533 0.0474701 
0.0467503 -0.00208463 0.0478896 0.0459064 -0.0027867 0.0483796 0.044442 -0.00335842 0.0488045 
0.0422763 -0.00378281 0.0491555 0.039527 -0.00397175 0.0493081 0.0360616 -0.00387174 0.0492171 
0.0321238 -0.00350308 0.0488194 0.0275564 -0.00277621 0.0480128 0.0226448 -0.00183427 0.046826 
0.0172343 -0.000580502 0.0450879 0.0115748 0.000761015 0.0429157 0.00552214 0.00224108 0.0400583 
-0.000737086 0.00363816 0.0367029 -0.0073521 0.00489232 0.0324901 -0.0141668 0.00587673 0.0276752 
-0.0213572 0.00635335 0.0217269 0.0831905 -0.0243549 0.0556223 0.0749367 -0.0207429 0.0560863 
0.0678914 -0.0175382 0.0561 0.0614881 -0.0145498 0.0558744 0.0563009 -0.0119071 0.0553008 
0.0518198 -0.00946526 0.0545251 0.0484787 -0.00736566 0.0535609 0.0458598 -0.00548286 0.0524773 
0.0441927 -0.00395334 0.0513697 0.0431822 -0.00266746 0.0502454 0.0428393 -0.00173132 0.049226 
0.0429971 -0.00105748 0.0482852 0.0434858 -0.000698365 0.0475213 0.0442442 -0.000595693 0.0469014 
0.044999 -0.000734545 0.0464696 0.0457505 -0.00108706 0.046204 0.0462168 -0.00157302 0.0460837 
0.0464093 -0.00218709 0.0461028 0.0461255 -0.00280534 0.0461841 0.0453457 -0.00342794 0.0463301 
0.0440056 -0.00392854 0.0464324 0.042032 -0.00429125 0.0464853 0.0395108 -0.00444021 0.0463857 
0.0363175 -0.00432682 0.046099 0.0326518 -0.00396989 0.0455644 0.0283561 -0.00328822 0.0446991 
0.023678 -0.00240657 0.0435083 0.0184452 -0.00123494 0.0418453 0.0128947 3.02231e-05 0.0397854 
0.0068422 0.00144306 0.0370985 0.000494687 0.00280354 0.0339266 -0.006361 0.00407387 0.0299194 
-0.0135171 0.00512805 0.0252979 -0.0212388 0.00577536 0.0195204 0.0864594 -0.0201303 0.0555102 
0.0778949 -0.0173117 0.0559399 0.0705865 -0.0147784 0.0559396 0.0639455 -0.0123966 0.055711 
0.0585263 -0.010263 0.0551458 0.0538165 -0.0082736 0.0543852 0.0502354 -0.00654697 0.0534327 
0.0473691 -0.0049868 0.0523588 0.0454435 -0.00371511 0.0512418 0.0441667 -0.00264237 0.0500951 
0.0435581 -0.00186696 0.0490219 0.0434508 -0.00131454 0.0480038 0.043693 -0.00103523 0.0471249 
0.04422 -0.000978458 0.0463596 0.0447808 -0.00113213 0.0457466 0.0453716 -0.00147196 0.0452686 
0.0457297 -0.00192584 0.0449109 0.0458643 -0.0024892 0.0446688 0.0455812 -0.00305087 0.0444821 
0.0448628 -0.0036108 0.0443531 0.0436359 -0.00405685 0.0441954 0.0418339 -0.00437417 0.0440051 
0.0395161 -0.00449591 0.0436964 0.0365651 -0.00437759 0.0432424 0.0331442 -0.00403492 0.0425849 
0.0290967 -0.00339312 0.0416561 0.0246386 -0.00255978 0.0404449 0.0195853 -0.00144871 0.0388243 
0.0141612 -0.000232024 0.0368387 0.00815164 0.00115143 0.0342769 0.00177721 0.00252022 0.0312465 
-0.00522556 0.00386374 0.0274088 -0.0126099 0.00505522 0.0229567 -0.0207127 0.00596051 0.017348 
0.0891385 -0.0155905 0.054901 0.0803362 -0.0135887 0.0553092 0.072829 -0.0117396 0.0553117 
0.0660098 -0.00997161 0.0550987 0.060412 -0.00835003 0.0545633 0.0555234 -0.00681348 0.0538408 
0.0517472 -0.00545896 0.0529247 0.0486755 -0.00421972 0.0518861 0.0465295 -0.00320404 0.0507865 
0.0450217 -0.00234255 0.0496448 0.0441794 -0.00172643 0.0485462 0.0438361 -0.00129433 0.0474799 
0.0438578 -0.00109465 0.046517 0.0441768 -0.00108436 0.0456381 0.0445637 -0.00125486 0.044878 
0.0450107 -0.00158529 0.0442229 0.0452732 -0.002012 0.0436646 0.0453585 -0.00253116 0.0431993 
0.0450796 -0.00304396 0.042782 0.0444213 -0.00355014 0.0424148 0.0433017 -0.00395044 0.0420302 
0.0416605 -0.00423103 0.0416259 0.0395329 -0.00433233 0.0411309 0.0368083 -0.00421356 0.0405246 
0.0336177 -0.0038865 0.0397518 0.0298058 -0.00328172 0.038757 0.0255608 -0.00249033 0.0375168 
0.0206878 -0.00142838 0.0359209 0.0153995 -0.000245353 0.0339896 0.00945544 0.00112884 0.0315287 
0.0030867 0.00252978 0.0286174 -0.00401344 0.0039768 0.0249302 -0.0115659 0.00534146 0.0206345 
-0.0199699 0.00655108 0.0151936 0.0906591 -0.0107156 0.053618 0.0817871 -0.00953228 0.0540152 
0.0742187 -0.00836468 0.0540331 0.067343 -0.00720543 0.0538495 0.061671 -0.0060916 0.0533598 
0.0566979 -0.00500415 0.0526925 0.05281 -0.00402014 0.0518323 0.0496092 -0.00310165 0.0508498 
0.0473108 -0.00234399 0.0497913 0.0456346 -0.00169723 0.0486803 0.0446144 -0.00124563 0.0475857 
0.0440862 -0.000940397 0.0465034 0.0439318 -0.000828574 0.0454926 0.0440822 -0.000874342 0.04454 
0.0443277 -0.00107292 0.0436765 0.0446575 -0.00140667 0.0428918 0.0448438 -0.00182031 0.0421826 
0.0448922 -0.00231064 0.0415461 0.0446229 -0.00279017 0.0409496 0.0440225 -0.00325844 0.0403947 
0.0430026 -0.00362696 0.0398293 0.0415083 -0.00388271 0.0392519 0.0395554 -0.00397145 0.0386035 
0.0370395 -0.00385523 0.0378681 0.0340655 -0.00354147 0.0369939 0.0304807 -0.00296434 0.0359348 
0.0264502 -0.00220049 0.03466 0.0217735 -0.00116589 0.0330723 0.0166522 9.02717e-06 0.031176 
0.0108289 0.00140551 0.0287921 0.00454035 0.00287284 0.0259792 -0.00254941 0.00446218 0.0224275 
-0.0101394 0.00604161 0.0182843 -0.0186709 0.00760237 0.0130275 0.091507 -0.00564616 0.0519437 
0.0826628 -0.0052822 0.0523359 0.0751134 -0.00479454 0.0523765 0.0682518 -0.00424116 0.0522304 
0.0625662 -0.00363262 0.0517958 0.0575635 -0.00299205 0.0511936 0.053612 -0.00237764 0.0504005 
0.0503264 -0.00177979 0.0494863 0.0479152 -0.00128128 0.0484826 0.046107 -0.000851282 0.0474172 
0.0449414 -0.00056725 0.0463436 0.0442577 -0.000392694 0.0452639 0.0439532 -0.000373494 0.0442264 
0.0439577 -0.000480882 0.0432232 0.0440808 -0.000714068 0.0422817 0.0443088 -0.00105854 0.0413948 
0.0444302 -0.00146728 0.0405637 0.044449 -0.00193771 0.0397862 0.0441923 -0.00239302 0.0390403 
0.0436486 -0.00283257 0.0383272 0.0427239 -0.00317743 0.0376077 0.0413685 -0.00341525 0.0368809 
0.0395811 -0.00349602 0.0360982 0.0372637 -0.00338407 0.0352471 0.0344983 -0.00308228 0.0342797 
0.0311357 -0.00252736 0.0331573 0.0273206 -0.00178266 0.0318446 0.0228495 -0.000762796 0.0302557 
0.0179133 0.000418853 0.028383 0.0122428 0.00185595 0.0260621 0.00607771 0.00340953 0.0233357 
-0.000939114 0.00516375 0.0199109 -0.0084907 0.0069821 0.0159176 -0.0170489 0.00892119 0.0108544 
0.0912798 -0.000558937 0.0498554 0.0826225 -0.000964335 0.0502425 0.0752192 -0.00111915 0.0503043 
0.068482 -0.00114083 0.0501933 0.062876 -0.00101621 0.0498111 0.057927 -0.000806628 0.0492713 
0.0539855 -0.000552658 0.0485438 0.0506821 -0.000270573 0.0476975 0.0482185 -3.07788e-05 0.0467511 
0.046334 0.000179849 0.0457359 0.045073 0.000290857 0.0446923 0.0442796 0.000327151 0.0436272 
0.043865 0.00024437 0.0425799 0.043759 6.45643e-05 0.041547 0.0437891 -0.000215034 0.0405526 
0.0439396 -0.000582911 0.0395924 0.0440139 -0.000999669 0.0386709 0.0440152 -0.00146335 0.0377865 
0.0437778 -0.00190666 0.0369255 0.0432916 -0.00232874 0.0360889 0.0424594 -0.00265889 0.0352473 
0.0412361 -0.00288512 0.0344003 0.0396073 -0.00296082 0.0335079 0.0374808 -0.00285179 0.0325598 
0.0349205 -0.00255686 0.0315124 0.0317819 -0.00201406 0.0303325 0.0281928 -0.00127573 0.028983 
0.0239502 -0.000253869 0.0273874 0.0192351 0.000951896 0.025531 0.0137739 0.00244804 0.0232629 
0.0078057 0.00410436 0.0206148 0.000964293 0.00603654 0.0173125 -0.00642581 0.00810211 0.0134724 
-0.0148488 0.0104188 0.00862032 0.0903717 0.00453953 0.0475049 0.082002 0.00339646 0.0478867 
0.0748253 0.00262291 0.0479687 0.0682824 0.00204566 0.0478914 0.0628151 0.0016999 0.0475599 
0.0579725 0.00148856 0.0470808 0.0540874 0.00138789 0.0464181 0.0508089 0.00135731 0.0456392 
0.0483312 0.00133867 0.0447519 0.0464057 0.00132826 0.0437898 0.0450809 0.00126279 0.0427817 
0.0442067 0.00115602 0.0417391 0.0437074 0.000965331 0.0406927 0.0435134 0.000706268 0.0396432 
0.0434691 0.000372783 0.0386118 0.0435572 -2.65363e-05 0.0375965 0.043596 -0.000459499 0.0366045 
0.0435875 -0.000924759 0.0356349 0.0433734 -0.0013638 0.0346806 0.0429454 -0.00177554 0.0337423 
0.042204 -0.00209665 0.0327991 0.0411085 -0.00231531 0.0318504 0.0396336 -0.00238777 0.0308638 
0.0376933 -0.0022808 0.0298306 0.035336 -0.0019895 0.0287114 0.0324226 -0.00145243 0.0274776 
0.0290659 -0.000712349 0.0260921 0.0250665 0.000322084 0.0244864 0.0205953 0.00156298 0.0226417 
0.0153792 0.00312985 0.0204198 0.0096544 0.00489934 0.0178449 0.00305333 0.00701778 0.0146623 
-0.00409733 0.00933581 0.0109775 -0.0122825 0.0120295 0.00634752 0.0885959 0.00937533 0.0449604 
0.0806278 0.0075841 0.0453294 0.0737701 0.00625671 0.0454208 0.0675022 0.00517574 0.0453647 
0.0622434 0.00439617 0.0450699 0.0575704 0.00379161 0.0446365 0.053799 0.0033544 0.0440244 
0.0505987 0.0030232 0.0432991 0.0481561 0.00275227 0.0424597 0.0462361 0.00252292 0.0415415 
0.0448902 0.00227955 0.0405639 0.043975 0.00202568 0.0395418 0.0434262 0.00172116 0.0384989 
0.0431761 0.00137538 0.0374392 0.0430844 0.000979737 0.0363814 0.0431328 0.000539982 0.0353251 
0.0431538 8.20095e-05 0.0342797 0.0431484 -0.000393453 0.0332445 0.0429667 -0.000835664 0.0322177 
0.0426013 -0.00124324 0.0311994 0.0419528 -0.00155946 0.0301755 0.0409842 -0.0017724 0.0291451 
0.0396627 -0.00184097 0.028082 0.037908 -0.00173237 0.0269785 0.0357562 -0.00143895 0.0257994 
0.0330748 -0.000899089 0.0245195 0.0299641 -0.000148131 0.0231029 0.0262308 0.000908927 0.021488 
0.0220363 0.00219312 0.0196545 0.0171135 0.00383595 0.0174756 0.0116927 0.00571867 0.0149712 
0.00541425 0.00801453 0.0119063 -0.00139983 0.0105669 0.00837775 -0.00922205 0.0136021 0.00397666 
0.0862218 0.01403 0.0422819 0.0787338 0.0116523 0.042633 0.0722587 0.00981585 0.0427265 
0.0663218 0.00826692 0.042683 0.0613194 0.00707875 0.0424152 0.0568596 0.00610007 0.0420171 
0.0532413 0.00533882 0.0414458 0.050156 0.0047153 0.0407646 0.0477826 0.00419633 0.0399655 
0.0459001 0.00374946 0.0390849 0.0445625 0.00332723 0.0381343 0.0436336 0.00292347 0.0371312 
0.0430599 0.00250104 0.0360938 0.0427755 0.0020634 0.0350284 0.042655 0.00159989 0.0339512 
0.0426794 0.0011135 0.0328638 0.0426948 0.000624441 0.0317766 0.0427016 0.000132829 0.0306894 
0.0425583 -0.000317674 0.0296043 0.0422587 -0.000725355 0.0285212 0.0417045 -0.00103954 0.027431 
0.0408623 -0.00124804 0.0263328 0.0396936 -0.00131228 0.0252053 0.0381241 -0.00119949 0.0240417 
0.0361795 -0.00089997 0.0228109 0.033735 -0.000351469 0.0214901 0.0308796 0.000416668 0.0200459 
0.0274283 0.00150328 0.0184225 0.0235331 0.00283642 0.0165996 0.0189368 0.00455881 0.0144617 
0.0138619 0.0065548 0.012026 0.00796266 0.00902199 0.00907731 0.00155217 0.0117962 0.00570576 
-0.00582075 0.0151483 0.00153818 0.0832501 0.0182522 0.0395765 0.076294 0.0153909 0.0398978 
0.0702478 0.01312 0.0399776 0.064685 0.0111626 0.0399291 0.0599798 0.00960865 0.0396686 
0.0557726 0.0082889 0.039285 0.0523459 0.00722673 0.0387338 0.0494136 0.0063277 0.0380765 
0.0471464 0.00557157 0.0372995 0.045338 0.004914 0.0364401 0.0440435 0.00431634 0.0355037 
0.0431344 0.00376362 0.0345097 0.0425662 0.00322235 0.0334714 0.0422759 0.00269042 0.0323973 
0.0421511 0.00215587 0.0313016 0.0421729 0.001619 0.030187 0.0422004 0.00109515 0.0290645 
0.0422333 0.0005838 0.0279347 0.0421392 0.000122232 0.026802 0.0419128 -0.000287481 0.0256664 
0.0414582 -0.000600182 0.0245226 0.0407458 -0.000803215 0.0233696 0.039733 -0.000860736 0.0221902 
0.0383516 -0.000739673 0.0209782 0.0366194 -0.000429272 0.0197057 0.0344196 0.00013358 0.0183525 
0.0318316 0.000923747 0.0168874 0.0286806 0.00204352 0.0152599 0.0251092 0.00342594 0.0134505 
0.0208739 0.00522307 0.011354 0.0161874 0.00732114 0.00898605 0.0107237 0.00993749 0.00615068 
0.00478203 0.0129013 0.00293204 -0.00205927 0.0165192 -0.00100804 0.0798303 0.02215 0.0368509 
0.0734449 0.0188823 0.0371334 0.0678623 0.0162328 0.0371878 0.0627061 0.0139117 0.037121 
0.0583287 0.012024 0.036853 0.0544035 0.010388 0.0364684 0.0511973 0.00904226 0.0359219 
0.0484464 0.00788032 0.0352731 0.0463133 0.0068952 0.0345048 0.0446063 0.00603204 0.0336543 
0.0433809 0.00526154 0.0327225 0.0425167 0.00456053 0.0317298 0.0419771 0.00389973 0.0306861 
0.041702 0.00327169 0.0296011 0.0415915 0.00266371 0.0284874 0.0416267 0.00207349 0.0273484 
0.0416794 0.00151206 0.0261958 0.041749 0.000978288 0.0250302 0.0417121 0.000503575 0.023858 
0.0415644 9.0386e-05 0.0226792 0.0412136 -0.000221239 0.0214914 0.0406332 -0.000418052 0.0202934 
0.0397787 -0.000467053 0.0190713 0.0385877 -0.00033465 0.0178195 0.0370717 -9.78346e-06 0.016513 
0.0351224 0.0005717 0.0151337 0.0328108 0.00138754 0.0136528 0.0299739 0.00254318 0.0120244 
0.0267448 0.00397514 0.0102307 0.0228964 0.00584339 0.0081759 0.0186301 0.00803514 0.00587514 
0.0136441 0.010784 0.0031508 0.00822029 0.0139133 8.20266e-05 0.00197235 0.0177586 -0.00363508 
0.076069 0.0255788 0.0342204 0.0702492 0.0219939 0.0344493 0.0651334 0.0190307 0.0344596 
0.0603918 0.0163977 0.0343539 0.0563563 0.014214 0.0340563 0.0527309 0.0122912 0.0336472 
0.0497668 0.0106834 0.0330825 0.0472217 0.00927503 0.0324195 0.0452492 0.00807318 0.0316393 
0.0436717 0.00701374 0.0307784 0.0425434 0.00607737 0.0298351 0.0417521 0.0052333 0.0288298 
0.0412675 0.00445685 0.0277703 0.0410326 0.00373551 0.0266664 0.0409588 0.00305621 0.0255299 
0.0410273 0.00241409 0.0243645 0.0411222 0.0018163 0.0231819 0.0412425 0.00126107 0.021983 
0.0412742 0.000774402 0.0207757 0.0412139 0.00035916 0.0195597 0.0409738 5.05055e-05 0.0183349 
0.0405306 -0.000137657 0.0171003 0.0398389 -0.000175344 0.0158441 0.0388422 -2.83543e-05 0.0145616 
0.0375472 0.000313866 0.01323 0.0358545 0.000916395 0.0118331 0.0338275 0.00175857 0.0103439 
0.0313158 0.00294822 0.00872105 0.0284437 0.00442414 0.00694781 0.0250022 0.00635208 0.00493713 
0.0211805 0.00861989 0.00270375 0.0167041 0.011473 8.68627e-05 0.0118352 0.0147307 -0.00283898 
0.00622748 0.01875 -0.00634638 0.0720296 0.0286254 0.0316673 0.0667709 0.0247959 0.0318305 
0.0621249 0.0215719 0.0317817 0.0578043 0.0186694 0.0316203 0.0541222 0.0162204 0.0312748 
0.0508108 0.0140348 0.0308223 0.0481067 0.0121824 0.0302208 0.0457873 0.0105411 0.029525 
0.043997 0.00913247 0.0287161 0.0425716 0.00788433 0.0278292 0.0415633 0.00678778 0.0268611 
0.0408679 0.00580491 0.0258321 0.0404597 0.004916 0.024748 0.0402855 0.00410365 0.023619 
0.0402665 0.00335472 0.0224557 0.0403847 0.0026619 0.021262 0.0405356 0.00202873 0.0200497 
0.0407179 0.00145283 0.0188196 0.0408276 0.00095518 0.0175806 0.0408616 0.000539042 0.0163323 
0.040738 0.000234902 0.0150764 0.040436 5.7369e-05 0.0138119 0.0399108 3.32758e-05 0.0125288 
0.0391117 0.000197495 0.0112229 0.0380417 0.000559423 0.00987339 0.0366103 0.00118496 0.0084657 
0.0348745 0.00205401 0.00697453 0.0326974 0.00327615 0.00536231 0.0301941 0.0047915 0.00361347 
0.0271757 0.00676981 0.00164891 0.0238185 0.00909931 -0.000516891 0.0198777 0.0120336 -0.00302925 
0.0155939 0.0153896 -0.00581783 0.0106647 0.0195392 -0.00912634 0.0678355 0.0312767 0.0293026 
0.0630928 0.0272603 0.0293818 0.0588895 0.0238161 0.0292522 0.0549726 0.0206758 0.0290117 
0.051639 0.0179843 0.0285936 0.0486441 0.0155535 0.0280724 0.0462106 0.0134703 0.0274097 
0.0441327 0.0116072 0.0266574 0.0425447 0.0100019 0.0257984 0.0412945 0.00857422 0.0248658 
0.0404302 0.00732622 0.0238562 0.0398554 0.00621296 0.0227887 0.0395473 0.00521959 0.0216683 
0.0394564 0.00432392 0.0205048 0.0395125 0.00351244 0.0193077 0.0396984 0.00277541 0.0180809 
0.0399207 0.0021127 0.016836 0.040178 0.00152132 0.0155738 0.0403763 0.00101731 0.0143038 
0.0405131 0.000604286 0.0130259 0.0405124 0.000308191 0.0117427 0.0403564 0.000144274 0.0104536 
0.0400017 0.000136182 0.00914992 0.0394029 0.000319331 0.00782835 0.0385604 0.00070154 0.00646894 
0.0373927 0.00134916 0.00505908 0.035951 0.00224198 0.00357407 0.034112 0.00349032 0.0019801 
0.0319824 0.00503509 0.000261956 0.0293939 0.00704791 -0.00165227 0.0265096 0.00941772 -0.00374871 
0.0231161 0.0124023 -0.00615897 0.0194323 0.0158182 -0.00881657 0.0152022 0.020046 -0.0119397 
0.0635047 0.0335785 0.0271046 0.0592381 0.029426 0.0270837 0.0554534 0.0257976 0.0268541 
0.0519247 0.0224476 0.0265136 0.0489354 0.0195338 0.0260011 0.0462591 0.0168732 0.0253889 
0.0441057 0.0145713 0.0246435 0.0422833 0.0124966 0.0238138 0.0409154 0.0107034 0.0228857 
0.0398608 0.00910426 0.0218899 0.0391618 0.00771252 0.0208238 0.0387296 0.00647632 0.019705 
0.0385424 0.00538559 0.0185379 0.0385549 0.0044134 0.0173313 0.0387038 0.00354559 0.0160943 
0.0389735 0.00277013 0.0148301 0.0392809 0.00208303 0.0135502 0.0396247 0.00148078 0.0122551 
0.0399209 0.000974471 0.0109549 0.0401677 0.000568119 0.00964954 0.040296 0.000283193 0.0083425 
0.0402902 0.000135533 0.00703358 0.0401092 0.000145572 0.00571496 0.0397133 0.000349153 0.00438442 
0.0391005 0.00075215 0.00302219 0.0381986 0.00142103 0.00161771 0.0370536 0.00233486 0.000146093 
0.035556 0.00360386 -0.00142288 0.0338043 0.00516922 -0.00310475 0.0316514 0.00720251 -0.0049649 
0.0292476 0.00959369 -0.00699041 0.0264117 0.0126012 -0.00930072 0.0233411 0.0160432 -0.0118329 
0.0198283 0.0203029 -0.0147827 0.0591152 0.0356262 0.0251797 0.0552573 0.0313556 0.025034 
0.0518477 0.0275517 0.0246766 0.0486764 0.0239959 0.0242067 0.0460177 0.0208611 0.0235705 
0.0436568 0.0179709 0.0228378 0.0417909 0.015452 0.0219827 0.0402386 0.0131683 0.0210501 
0.0391103 0.0111928 0.0200309 0.0382744 0.00942979 0.0189522 0.0377647 0.00790399 0.0178134 
0.0374996 0.0065561 0.0166297 0.0374562 0.00537999 0.015405 0.0375933 0.00434385 0.0141471 
0.0378538 0.0034318 0.0128637 0.0382233 0.00262954 0.0115577 0.0386291 0.00192849 0.0102397 
0.0390699 0.0013246 0.00891038 0.0394725 0.000823779 0.00757999 0.0398352 0.000430328 0.00624853 
0.0400966 0.000161356 0.00492038 0.0402434 3.31007e-05 0.00359597 0.0402376 6.29514e-05 0.00226793 
0.0400443 0.000286841 0.000935436 0.0396603 0.000708778 -0.000421844 0.0390221 0.00139478 -0.00181217 
0.0381708 0.00232311 -0.0032617 0.0370108 0.00360282 -0.00479708 0.0356326 0.00517536 -0.00643521 
0.0339101 0.00721027 -0.00823556 0.0319814 0.00959902 -0.0101866 0.0296979 0.0125972 -0.0123973 
0.027236 0.016026 -0.0148078 0.0244382 0.0202658 -0.0175942 0.0546693 0.0374299 0.0235169 
0.0511556 0.0330585 0.0232229 0.0480793 0.0290876 0.022711 0.0452355 0.0253296 0.0220834 
0.0428946 0.0219752 0.0212953 0.0408456 0.0188553 0.0204139 0.0392746 0.0161211 0.0194231 
0.0380062 0.0136311 0.0183631 0.0371365 0.0114787 0.0172318 0.0365416 0.00955899 0.0160513 
0.0362441 0.0079084 0.0148243 0.0361697 0.00645964 0.0135624 0.0362919 0.00520966 0.0122699 
0.0365743 0.00412163 0.0109525 0.0369641 0.00317694 0.00961656 0.0374488 0.00235905 0.00826436 
0.0379658 0.00165405 0.00690565 0.0385138 0.00105741 0.0055407 0.0390305 0.000569543 0.00418005 
0.0395148 0.000194977 0.00282386 0.0399135 -5.3447e-05 0.00147725 0.0402154 -0.000159274 0.000141473 
0.0403859 -0.000108001 -0.00119068 0.0403952 0.000136078 -0.0025184 0.0402391 0.000575184 -0.00386327 
0.0398624 0.00127433 -0.00523102 0.0393022 0.00221091 -0.00665012 0.0384759 0.00349177 -0.00814367 
0.037467 0.00505864 -0.00973088 0.0361699 0.00707707 -0.0114659 0.0347114 0.00944054 -0.0133392 
0.0329749 0.0123983 -0.0154506 0.0311175 0.0157765 -0.0177428 0.0290327 0.0199462 -0.0203755 
0.0501719 0.0391431 0.0222231 0.0469244 0.0346479 0.0217441 0.0441326 0.0304839 0.0210379 
0.041583 0.0264959 0.020211 0.0395483 0.0228992 0.0192315 0.0378126 0.0195299 0.0181633 
0.0365503 0.0165689 0.0170039 0.0355877 0.0138667 0.0157868 0.0350028 0.0115389 0.0145196 
0.0346782 0.00946938 0.0132177 0.0346215 0.00770564 0.0118878 0.0347655 0.00617124 0.0105369 
0.0350776 0.00486428 0.00916889 0.0355264 0.00374263 0.00778696 0.0360626 0.00278291 0.00639562 
0.0366762 0.00196646 0.00499597 0.0373144 0.00127258 0.0035963 0.0379763 0.000696377 0.00219664 
0.0386116 0.000232221 0.000807473 0.0392192 -0.000115222 -0.000570744 0.0397553 -0.000337305 -0.00193206 
0.0402104 -0.000417676 -0.00327426 0.0405544 -0.000344254 -0.00460453 0.0407618 -8.20839e-05 -0.00592016 
0.040828 0.000369923 -0.0072446 0.0407056 0.00107505 -0.00858081 0.0404277 0.0020104 -0.00996054 
0.0399244 0.00327958 -0.0114034 0.0392722 0.00482501 -0.0129318 0.0383852 0.00680659 -0.0145953 
0.0373793 0.00912021 -0.0163865 0.0361689 0.0120056 -0.0183974 0.0348933 0.0152949 -0.0205731 
0.0334951 0.0193442 -0.0230586 0.045621 0.0407618 0.0213138 0.0425584 0.0361189 0.0206116 
0.0400002 0.0317346 0.0196695 0.0377099 0.0274878 0.0185999 0.0359695 0.0236253 0.0173879 
0.0345485 0.0199858 0.0160931 0.0336093 0.0167863 0.0147309 0.0329752 0.0138654 0.0133259 
0.0327025 0.011364 0.011898 0.032679 0.00915183 0.0104542 0.0328926 0.00728709 0.00900614 
0.033284 0.0056829 0.00755476 0.033811 0.00433656 0.00610331 0.0344484 0.0032003 0.00465179 
0.035149 0.00224392 0.00320193 0.0359054 0.00144666 0.00175353 0.0366753 0.000779619 0.000312739 
0.0374581 0.000237586 -0.00112076 0.0382165 -0.00019165 -0.00253659 0.0389493 -0.000503386 -0.00393404 
0.0396229 -0.000693094 -0.00530614 0.0402296 -0.000744856 -0.00664961 0.0407439 -0.000648528 -0.00797174 
0.0411448 -0.000370452 -0.00926767 0.0414273 9.00102e-05 -0.0105633 0.0415517 0.000793654 -0.0118587 
0.0415471 0.0017179 -0.0131897 0.0413555 0.00296203 -0.0145726 0.0410471 0.0044696 -0.016034 
0.040554 0.00639313 -0.0176195 0.0399827 0.00863127 -0.019324 0.0392765 0.0114112 -0.0212334 
0.038559 0.0145715 -0.0232941 0.0378201 0.0184478 -0.0256395 0.0409473 0.0424308 0.0209038 
0.037986 0.0375768 0.0199182 0.0356156 0.0329119 0.0186771 0.0335592 0.0283475 0.0173003 
0.032115 0.0241743 0.0157977 0.0310262 0.0202283 0.014222 0.0304408 0.0167698 0.0126132 
0.0301741 0.0136201 0.0109835 0.0302542 0.010947 0.00936833 0.0305734 0.00860259 0.0077632 
0.0310943 0.00665379 0.00618495 0.0317667 0.00500171 0.00462687 0.0325355 0.00363959 0.00309013 
0.0333828 0.00251374 0.00157077 0.034263 0.00158424 6.59597e-05 0.0351723 0.000828458 -0.00142598 
0.0360794 0.000207549 -0.0029022 0.0369845 -0.000283876 -0.00436333 0.0378644 -0.000665217 -0.00579947 
0.0387181 -0.000931885 -0.00720959 0.0395234 -0.00108322 -0.00858563 0.0402739 -0.00110419 -0.00992316 
0.0409499 -0.000985713 -0.0112294 0.0415345 -0.00069609 -0.0124973 0.0420224 -0.000233931 -0.0137555 
0.0423813 0.000458277 -0.0150009 0.0426361 0.00135955 -0.0162747 0.0427401 0.00256396 -0.0175896 
0.0427564 0.00401708 -0.0189771 0.0426344 0.0058629 -0.0204794 0.0424706 0.00800308 -0.0220938 
0.0422348 0.0106502 -0.0239014 0.0420358 0.013649 -0.0258491 0.0419063 0.0173099 -0.0280605 
0.0361351 0.0441566 0.0210582 0.0331801 0.0390201 0.0197212 0.030946 0.0340063 0.0181098 
0.0290948 0.0290576 0.0163528 0.0279488 0.0245232 0.014494 0.0272122 0.0202295 0.012576 
0.0270152 0.016489 0.0106713 0.0271599 0.0130989 0.00877507 0.0276385 0.0102563 0.00694255 
0.0283475 0.00779141 0.005154 0.0292177 0.00577775 0.00343214 0.0302088 0.00410252 0.00176031 
0.0312497 0.00275131 0.000136189 0.0323313 0.00166411 -0.00144904 0.0334085 0.00078813 -0.00300476 
0.0344818 9.90064e-05 -0.00453437 0.0355323 -0.000453949 -0.00603957 0.0365611 -0.000876183 -0.00752132 
0.0375609 -0.00119496 -0.00897057 0.0385306 -0.00140598 -0.0103859 0.0394609 -0.00151218 -0.0117582 
0.0403467 -0.00149988 -0.0130816 0.0411747 -0.0013601 -0.0143633 0.0419318 -0.00106386 -0.0155937 
0.0426128 -0.000607642 -0.0168047 0.0431923 6.18749e-05 -0.01799 0.0436908 0.000926744 -0.0191967 
0.0440719 0.00207487 -0.0204345 0.0443917 0.00345479 -0.0217403 0.0446147 0.00520067 -0.0231535 
0.0448278 0.00721747 -0.0246741 0.0450241 0.00970086 -0.0263795 0.0452992 0.0125014 -0.0282163 
0.0457227 0.0158991 -0.0303006 0.0310619 0.045983 0.0219003 0.0280253 0.0404655 0.020108 
0.0258936 0.0350164 0.018022 0.0242426 0.0296037 0.0157799 0.0234232 0.0246539 0.0134758 
0.0230865 0.019973 0.0111356 0.0233361 0.0159339 0.00887532 0.023957 0.0123013 0.00666557 
0.0248949 0.00930138 0.00458603 0.0260513 0.0067379 0.00259629 0.0273179 0.00468705 0.00072432 
0.0286672 0.00302069 -0.00105932 0.0300089 0.00171223 -0.0027634 0.0313445 0.000695409 -0.00440264 
0.0326302 -9.86027e-05 -0.00599583 0.0338717 -0.00069551 -0.00754828 0.0350646 -0.00115922 -0.00906792 
0.0362109 -0.00149505 -0.0105561 0.0373217 -0.00173838 -0.012005 0.0383954 -0.00188536 -0.0134131 
0.0394374 -0.00194196 -0.0147695 0.0404437 -0.00189641 -0.0160677 0.0414085 -0.0017386 -0.017314 
0.0423224 -0.00144302 -0.0184966 0.0431805 -0.00100228 -0.0196509 0.0439641 -0.000368009 -0.0207674 
0.0446888 0.00044684 -0.0218993 0.0453279 0.00152352 -0.0230537 0.0459292 0.00281485 -0.0242731 
0.0464709 0.00444508 -0.0255949 0.0470295 0.00632228 -0.0270212 0.0476169 0.00862481 -0.0286272 
0.0483162 0.0112077 -0.0303582 0.0492262 0.0143182 -0.0323242 0.0256685 0.0479328 0.0235865 
0.0224422 0.0419134 0.0212115 0.0203714 0.0359232 0.0185226 0.0189146 0.0299486 0.0156669 
0.0184565 0.0245169 0.0128082 0.0185782 0.0194003 0.00994762 0.0193459 0.0150422 0.00725833 
0.0205226 0.0111645 0.00467751 0.0219941 0.00802215 0.00231452 0.0236687 0.00538697 0.000101777 
0.0253897 0.00333291 -0.00192829 0.0271455 0.0017147 -0.00382135 0.0288232 0.000488098 -0.00559629 
0.0304372 -0.000419418 -0.00727499 0.0319455 -0.00109655 -0.00888915 0.0333604 -0.00156988 -0.0104462 
0.0346944 -0.0019182 -0.0119625 0.0359507 -0.00214652 -0.0134395 0.0371612 -0.00229858 -0.0148716 
0.0383242 -0.00237121 -0.016257 0.0394617 -0.00237277 -0.017583 0.0405705 -0.00229398 -0.018842 
0.0416535 -0.00212216 -0.0200398 0.0427049 -0.00183616 -0.0211623 0.0437203 -0.00142261 -0.0222481 
0.0446879 -0.000838983 -0.0232849 0.0456171 -9.08661e-05 -0.0243326 0.0464907 0.000895765 -0.0253959 
0.0473468 0.00207963 -0.026523 0.0481751 0.00357491 -0.0277506 0.0490402 0.00529258 -0.029082 
0.0499685 0.00739327 -0.0305922 0.051031 0.0097345 -0.0322234 0.0523457 0.0125285 -0.0340823 
0.0198312 0.049807 0.0262168 0.0163298 0.0431795 0.0230786 0.014312 0.0365707 0.0196155 
0.0130825 0.0299718 0.0159798 0.013055 0.0240302 0.0124337 0.0137254 0.0184703 0.00893971 
0.0151037 0.0138075 0.00574343 0.0169303 0.00971307 0.00273574 0.0190155 0.00646558 5.97949e-05 
0.021279 0.00380222 -0.00238736 0.0235076 0.00178847 -0.00457194 0.0257099 0.000261938 -0.00655958 
0.0277488 -0.00084397 -0.00838484 0.0296545 -0.00160714 -0.0100778 0.0313893 -0.00213827 -0.0116873 
0.0329728 -0.00246413 -0.013223 0.0344377 -0.00267859 -0.0147113 0.0357887 -0.00278611 -0.0161542 
0.0370814 -0.00283818 -0.0175482 0.0383132 -0.00283248 -0.0188913 0.0395251 -0.00277885 -0.0201689 
0.0407144 -0.00267104 -0.0213727 0.0418941 -0.00249249 -0.0225072 0.0430621 -0.00222712 -0.0235566 
0.0442149 -0.00185344 -0.0245626 0.0453476 -0.00133536 -0.0255106 0.0464629 -0.00066856 -0.0264665 
0.0475532 0.000213876 -0.027434 0.0486442 0.00127826 -0.0284661 0.0497363 0.00262994 -0.0296004 
0.0508792 0.00418219 -0.0308403 0.0521097 0.00607987 -0.0322621 0.0534856 0.00817996 -0.0338035 
0.0551351 0.0106611 -0.0355698 0.0134021 0.0515805 0.0301061 0.00951175 0.0442034 0.025964 
0.00753637 0.0368724 0.0214982 0.00657832 0.029566 0.0168606 0.0070738 0.0230774 0.0124502 
0.00841328 0.0170638 0.00817195 0.0105256 0.0121156 0.00436468 0.0131275 0.0078421 0.000855717 
0.0159334 0.00453922 -0.00217255 0.0188799 0.00190572 -0.0048693 0.0216868 -9.68395e-06 -0.00720361 
0.0243889 -0.00138652 -0.00926607 0.0268227 -0.00231994 -0.0111142 0.0290381 -0.00289206 -0.0127878 
0.0310043 -0.00323835 -0.0143584 0.0327501 -0.00338488 -0.015838 0.0343325 -0.00344085 -0.0172658 
0.0357579 -0.00340987 -0.0186437 0.0371089 -0.0033503 -0.0199711 0.0383825 -0.00326095 -0.021246 
0.0396406 -0.00315196 -0.0224514 0.0408812 -0.00302075 -0.0235783 0.042129 -0.00284518 -0.02463 
0.0433856 -0.00261516 -0.0255892 0.0446491 -0.00229828 -0.0265002 0.0459219 -0.0018656 -0.027347 
0.0471989 -0.00129957 -0.0282013 0.0484821 -0.000540185 -0.0290665 0.0497816 0.000388703 -0.0300003 
0.0511068 0.00158523 -0.0310423 0.0524892 0.00296419 -0.032195 0.0539703 0.00465735 -0.0335385 
0.0555935 0.00651695 -0.0350033 0.0574842 0.00868987 -0.0366966 0.00638293 0.0526477 0.0351898 
0.00204475 0.0445041 0.0297522 0.00014955 0.0364772 0.0240293 -0.000447795 0.0285122 0.0181548 
0.000685552 0.0215487 0.0127073 0.00282383 0.0151667 0.00750767 0.00578659 0.010019 0.00300376 
0.00927152 0.00565295 -0.00105955 0.0128817 0.00237174 -0.00445955 0.0165781 -0.000161322 -0.00740208 
0.0200078 -0.00191992 -0.00986617 0.0232374 -0.00309768 -0.0119714 0.0260784 -0.00382029 -0.0138069 
0.0286027 -0.00417205 -0.0154226 0.0307911 -0.00431235 -0.016918 0.0326822 -0.00426561 -0.018307 