# vtk DataFile Version 3.0
vtk output
ASCII
DATASET RECTILINEAR_GRID
FIELD FieldData 2
base_index 1 3 int
34 0 68 
avtOriginalBounds 1 6 double
-3.33333 3.33333 -10 -3.33333 3.33333 10 
DIMENSIONS 34 34 34
X_COORDINATES 34 float
-3.33333 -3.13131 -2.92929 -2.72727 -2.52525 -2.32323 -2.12121 -1.91919 -1.71717 
-1.51515 -1.31313 -1.11111 -0.909091 -0.707071 -0.505051 -0.30303 -0.10101 0.10101 
0.30303 0.50505 0.70707 0.909091 1.11111 1.31313 1.51515 1.71717 1.91919 
2.12121 2.32323 2.52525 2.72727 2.92929 3.13131 3.33333 
Y_COORDINATES 34 float
-10 -9.79798 -9.59596 -9.39394 -9.19192 -8.9899 -8.78788 -8.58586 -8.38384 
-8.18182 -7.9798 -7.77778 -7.57576 -7.37374 -7.17172 -6.9697 -6.76768 -6.56566 
-6.36364 -6.16162 -5.9596 -5.75758 -5.55556 -5.35354 -5.15152 -4.9495 -4.74747 
-4.54545 -4.34343 -4.14141 -3.93939 -3.73737 -3.53535 -3.33333 
Z_COORDINATES 34 float
3.33333 3.53535 3.73737 3.93939 4.14141 4.34343 4.54545 4.74747 4.94949 
5.15152 5.35354 5.55556 5.75758 5.9596 6.16162 6.36364 6.56566 6.76768 
6.9697 7.17172 7.37374 7.57576 7.77778 7.9798 8.18182 8.38384 8.58586 
8.78788 8.9899 9.19192 9.39394 9.59596 9.79798 10 
POINT_DATA 39304
FIELD FieldData 1
grad 3 39304 float
-0.0770643 0.104141 0.0969765 -0.0856508 0.0959295 0.0943577 -0.0929058 0.0857006 0.0971005 
-0.0994534 0.0743999 0.102692 -0.100646 0.0620406 0.112211 -0.0987286 0.0490667 0.124013 
-0.0892037 0.0368571 0.136041 -0.0748608 0.0251316 0.148212 -0.0545378 0.016713 0.155453 
-0.0300906 0.0105751 0.159294 -0.00506328 0.00892962 0.155654 0.0203992 0.0106534 0.146405 
0.0414955 0.0152845 0.132363 0.0590342 0.0222845 0.114415 0.0711388 0.0298361 0.0959538 
0.0784364 0.0378757 0.077037 0.0820112 0.0452346 0.0599017 0.082012 0.0519401 0.0444766 
0.0802529 0.0577256 0.0312374 0.0766605 0.0625526 0.0202753 0.0724915 0.0665857 0.0111333 
0.0676708 0.0697211 0.0040488 0.0627959 0.0722371 -0.0017201 0.0578547 0.0739929 -0.00587444 
0.0530539 0.0752739 -0.0091558 0.0484404 0.0759217 -0.0112731 0.0440454 0.0762134 -0.0128693 
0.0399671 0.0759889 -0.0137097 0.036148 0.0755185 -0.0143098 0.0327379 0.0746597 -0.0145304 
0.0295939 0.0736644 -0.014743 0.026908 0.072434 -0.0149418 0.0244424 0.0711651 -0.0153172 
0.0223915 0.0698239 -0.0160252 -0.084573 0.117289 0.092733 -0.094828 0.108537 0.0915588 
-0.103432 0.0982249 0.0965259 -0.111158 0.0870835 0.104756 -0.11285 0.0752869 0.117601 
-0.111038 0.0631097 0.133125 -0.100518 0.0517995 0.14906 -0.084483 0.0410384 0.165254 
-0.0614997 0.0332362 0.1754 -0.0337241 0.0274745 0.181375 -0.00541245 0.0256212 0.177946 
0.0233014 0.0266992 0.167462 0.0467187 0.0303057 0.151236 0.0658203 0.0359724 0.130331 
0.0786199 0.0421554 0.109124 0.0858447 0.0487952 0.0876494 0.0889781 0.0548957 0.068457 
0.0881839 0.0604786 0.0514551 0.0855865 0.065301 0.0370042 0.0811106 0.0693312 0.0252106 
0.076116 0.0726863 0.0154395 0.0705352 0.0752784 0.00795466 0.0649652 0.0773263 0.00188676 
0.0594083 0.0787064 -0.00244216 0.0540457 0.0796557 -0.00584798 0.0489421 0.0800306 -0.00802293 
0.0441048 0.0800746 -0.00965091 0.0396538 0.0796391 -0.0104858 0.0355098 0.0789725 -0.0110696 
0.0318508 0.0779411 -0.0112572 0.0285054 0.0767826 -0.0114436 0.0257001 0.0754052 -0.011628 
0.0231534 0.0739961 -0.0120182 0.0210937 0.0725272 -0.0127958 -0.0920817 0.130437 0.0884896 
-0.104005 0.121145 0.0887599 -0.113957 0.110749 0.0959512 -0.122862 0.0997671 0.10682 
-0.125053 0.0885331 0.12299 -0.123346 0.0771527 0.142238 -0.111832 0.0667418 0.162079 
-0.0941052 0.0569451 0.182295 -0.0684615 0.0497592 0.195346 -0.0373576 0.0443739 0.203456 
-0.00576161 0.0423128 0.200237 0.0262035 0.0427449 0.188519 0.0519418 0.0453267 0.170109 
0.0726064 0.0496602 0.146246 0.086101 0.0544747 0.122293 0.0932529 0.0597146 0.0982618 
0.095945 0.0645567 0.0770123 0.0943558 0.069017 0.0584336 0.09092 0.0728763 0.042771 
0.0855606 0.0761096 0.030146 0.0797405 0.0787869 0.0197457 0.0733996 0.0808357 0.0118605 
0.0671344 0.0824155 0.00549361 0.0609619 0.0834199 0.000990098 0.0550375 0.0840375 -0.00254017 
0.0494438 0.0841394 -0.00477273 0.0441643 0.0839358 -0.00643254 0.0393404 0.0832892 -0.00726183 
0.0348717 0.0824265 -0.00782948 0.0309637 0.0812225 -0.00798399 0.027417 0.0799009 -0.00814418 
0.0244923 0.0783765 -0.00831415 0.0218646 0.076827 -0.00871914 0.0197958 0.0752304 -0.00956653 
-0.101765 0.153498 0.0727549 -0.114302 0.143642 0.0759457 -0.124382 0.133631 0.0859941 
-0.133155 0.123538 0.0996859 -0.134866 0.114039 0.118598 -0.132476 0.104887 0.140541 
-0.119912 0.0968986 0.162924 -0.100906 0.0896478 0.185583 -0.0737035 0.0841502 0.200504 
-0.0408486 0.0798616 0.210088 -0.00760124 0.0774777 0.207487 0.0259405 0.0765223 0.195747 
0.052841 0.0768328 0.176914 0.07433 0.0781747 0.152302 0.0882824 0.0799493 0.127675 
0.0955677 0.0821067 0.103036 0.0982209 0.0842109 0.0813426 0.0964274 0.0862641 0.0624784 
0.0927325 0.0880808 0.0466324 0.087057 0.0896513 0.0339303 0.0809061 0.0909287 0.0234937 
0.0742178 0.0918747 0.0156183 0.0676035 0.0925144 0.0092682 0.0610803 0.0927781 0.00479027 
0.0548146 0.0927489 0.0012803 0.0488921 0.092329 -0.000939015 0.043306 0.0916571 -0.00259197 
0.0382075 0.0906198 -0.0034237 0.0334985 0.0893982 -0.00399945 0.0294044 0.0878857 -0.00417101 
0.0257122 0.0862749 -0.0043599 0.0227121 0.0844948 -0.0045786 0.0200444 0.0827016 -0.00505897 
0.0180024 0.0808834 -0.00603189 -0.111494 0.176766 0.0567809 -0.124623 0.166345 0.0629229 
-0.134804 0.156728 0.0758416 -0.143419 0.147539 0.0923606 -0.144629 0.139801 0.114003 
-0.141538 0.132906 0.13862 -0.127925 0.127372 0.163515 -0.107648 0.1227 0.188585 
-0.0789096 0.118913 0.205354 -0.0443366 0.115736 0.216398 -0.00947192 0.113027 0.214424 
0.0256116 0.110669 0.202686 0.0536501 0.108682 0.183468 0.0759481 0.106998 0.158153 
0.0903533 0.105698 0.132895 0.0977764 0.104738 0.107688 0.100399 0.104073 0.0855848 
0.0984135 0.103692 0.066462 0.0944716 0.103444 0.050454 0.0884919 0.103334 0.0376906 
0.0820205 0.103196 0.0272301 0.0749932 0.103028 0.0193729 0.0680373 0.102718 0.0130463 
0.0611689 0.102233 0.00859808 0.0545664 0.101551 0.00511142 0.0483185 0.100604 0.00290684 
0.0424286 0.0994588 0.00126154 0.0370576 0.098027 0.000427214 0.0321101 0.0964432 -0.000157143 
0.0278311 0.0946192 -0.000346806 0.0239946 0.0927167 -0.000565526 0.0209199 0.0906788 -0.000834286 
0.0182131 0.0886395 -0.0013913 0.0161987 0.0865978 -0.00249092 -0.121395 0.190034 0.0314393 
-0.133951 0.180297 0.0414594 -0.1429 0.172107 0.0572695 -0.149932 0.164739 0.0761554 
-0.14959 0.15944 0.0991107 -0.144965 0.155341 0.124429 -0.130405 0.152634 0.149357 
-0.109551 0.150808 0.174039 -0.0809079 0.148981 0.190711 -0.0468916 0.147155 0.201859 
-0.0127155 0.144446 0.200947 0.0215806 0.141075 0.190988 0.0492035 0.137219 0.173956 
0.0713891 0.132968 0.151162 0.0860089 0.129012 0.128178 0.0939358 0.125318 0.105027 
0.0971153 0.122211 0.0846224 0.0957374 0.119668 0.0668541 0.0923043 0.117586 0.0519453 
0.0867303 0.115985 0.0400152 0.0805454 0.114598 0.0302264 0.0736699 0.113454 0.0228583 
0.066779 0.112318 0.0169139 0.0598694 0.111192 0.0127168 0.0531816 0.109954 0.00940679 
0.0467898 0.108566 0.00727972 0.0407485 0.107029 0.00566149 0.0352156 0.105276 0.00478107 
0.0301241 0.103402 0.00411919 0.0257298 0.101335 0.00380234 0.0218081 0.099208 0.00343662 
0.0187002 0.096978 0.00298674 0.0159893 0.0947563 0.00223124 0.0140258 0.0925503 0.0009005 
-0.131303 0.202877 0.00569908 -0.143238 0.193876 0.0196369 -0.150897 0.187157 0.0383392 
-0.156286 0.18165 0.0595725 -0.154346 0.178818 0.0837805 -0.148152 0.177539 0.109716 
-0.132648 0.177674 0.134573 -0.111249 0.178704 0.158746 -0.0827697 0.178849 0.175239 
-0.0494069 0.178384 0.186434 -0.0160174 0.175689 0.186601 0.0173921 0.171322 0.178496 
0.0445334 0.165615 0.163762 0.0665673 0.158816 0.143625 0.0813915 0.152223 0.123039 
0.0898378 0.145811 0.102055 0.0935991 0.140276 0.0834384 0.0928628 0.135582 0.0670933 
0.0899707 0.131677 0.0533374 0.0848328 0.128591 0.0422786 0.0789602 0.125962 0.0331911 
0.0722573 0.123848 0.0263322 0.0654488 0.121892 0.0207853 0.0585109 0.12013 0.0168487 
0.0517485 0.118341 0.0137219 0.0452204 0.116515 0.011675 0.0390342 0.114589 0.0100847 
0.0333441 0.112519 0.00915632 0.0281128 0.110357 0.00841397 0.0236061 0.10805 0.0079653 
0.0196017 0.105701 0.0074476 0.0164623 0.103282 0.006811 0.0137488 0.100881 0.00585185 
0.0118372 0.0985128 0.00428553 -0.138445 0.200506 -0.0223817 -0.149168 0.193651 -0.00474481 
-0.154968 0.189239 0.0162839 -0.158152 0.186125 0.0391145 -0.154334 0.185673 0.063514 
-0.146451 0.186767 0.0888246 -0.13038 0.189003 0.112341 -0.109124 0.191962 0.13472 
-0.0819121 0.193526 0.150183 -0.0505936 0.194129 0.160877 -0.0193807 0.191927 0.16223 
0.0117528 0.18762 0.156577 0.0373953 0.181537 0.145141 0.0585634 0.174008 0.128994 
0.0732642 0.166502 0.112138 0.0822441 0.159018 0.0946555 0.086786 0.152441 0.0789788 
0.0870676 0.146735 0.0650352 0.0851108 0.141931 0.0532368 0.0808224 0.138068 0.043673 
0.0756294 0.134771 0.0357883 0.0694138 0.132115 0.029802 0.0629519 0.129691 0.0249323 
0.0561878 0.127552 0.021433 0.0495186 0.125427 0.0186051 0.0429759 0.123322 0.0166723 
0.0367485 0.12114 0.0150985 0.0309783 0.118847 0.0140453 0.0256749 0.116479 0.0131166 
0.0211085 0.113993 0.0123842 0.0170668 0.111479 0.0115536 0.013929 0.108917 0.0105535 
0.011241 0.106382 0.00922759 0.00939992 0.103897 0.00728835 -0.145407 0.197142 -0.050615 
-0.15488 0.192526 -0.0292933 -0.158782 0.190476 -0.00597512 -0.159724 0.189789 0.0184038 
-0.154011 0.191712 0.0429256 -0.144432 0.195149 0.0675304 -0.127818 0.199438 0.0896228 
-0.106749 0.204265 0.110124 -0.0808773 0.207213 0.124503 -0.0516936 0.208864 0.134659 
-0.022748 0.207185 0.137205 0.00601902 0.203009 0.134043 0.0300962 0.196647 0.125972 
0.0503519 0.188504 0.1139 0.0649082 0.180198 0.100861 0.0744225 0.17175 0.0869669 
0.079758 0.164221 0.0743055 0.0810818 0.157577 0.0628274 0.0800861 0.151936 0.053039 
0.0766743 0.14734 0.0450107 0.0721847 0.143414 0.0383616 0.066477 0.140243 0.0332716 
0.0603789 0.137373 0.0290973 0.0538019 0.134874 0.0260468 0.0472368 0.132429 0.0235253 
0.0406875 0.130054 0.0217088 0.0344256 0.127625 0.0201509 0.0285803 0.125116 0.0189678 
0.0232092 0.122548 0.0178457 0.0185865 0.119887 0.0168199 0.0145106 0.117211 0.0156657 
0.0113764 0.114509 0.0142906 0.00871578 0.111843 0.0125873 0.00694645 0.109244 0.0102662 
-0.147124 0.17981 -0.0727176 -0.1554 0.178373 -0.0491602 -0.157718 0.179152 -0.0247022 
-0.156871 0.181109 0.000234452 -0.149825 0.185146 0.0242796 -0.13918 0.190391 0.0478072 
-0.122583 0.196038 0.0684509 -0.102217 0.201939 0.087268 -0.078035 0.205811 0.100722 
-0.051222 0.208284 0.110476 -0.0247402 0.207495 0.114006 0.00149324 0.204259 0.112867 
0.0237611 0.198805 0.10763 0.0427976 0.191545 0.0990548 0.0568992 0.183945 0.0894568 
0.0666353 0.176044 0.0789542 0.0725326 0.168898 0.0692663 0.0747445 0.162476 0.0603604 
0.0746238 0.156972 0.0527372 0.0720732 0.152424 0.0464501 0.0682949 0.148513 0.0412314 
0.0631289 0.145321 0.0372205 0.0574257 0.142414 0.0338885 0.0510633 0.139857 0.0313897 
0.0446235 0.137339 0.0292337 0.0380806 0.13487 0.0275346 0.0317963 0.132336 0.0259549 
0.0258872 0.129704 0.0245483 0.0204622 0.127012 0.0231147 0.0158017 0.124221 0.0216386 
0.011712 0.121422 0.019999 0.00860518 0.118606 0.018078 0.00599693 0.115837 0.01584 
0.00432716 0.113154 0.0130058 -0.148376 0.161237 -0.0942751 -0.155457 0.163062 -0.0686109 
-0.156219 0.166712 -0.0431152 -0.153623 0.171331 -0.0177089 -0.145296 0.177459 0.00580639 
-0.13364 0.184464 0.0282237 -0.11711 0.191408 0.0474164 -0.0974926 0.198313 0.0645668 
-0.075032 0.203069 0.0771096 -0.0506106 0.206344 0.0864749 -0.0266101 0.206476 0.0909697 
-0.00292514 0.204252 0.0918117 0.0175117 0.199812 0.0893627 0.0353017 0.193569 0.0842322 
0.0489212 0.186808 0.0780414 0.0588513 0.179589 0.0709128 0.0652897 0.172943 0.0641946 
0.068376 0.166847 0.0578704 0.0691226 0.161567 0.0524261 0.0674319 0.157136 0.0478985 
0.0643655 0.153297 0.0441276 0.0597443 0.150128 0.0412121 0.0544387 0.147219 0.0387355 
0.0482934 0.144632 0.0367974 0.0419809 0.142062 0.0350122 0.0354453 0.139516 0.0334306 
0.0291398 0.136889 0.0318258 0.0231678 0.134144 0.0301872 0.0176903 0.131333 0.0284316 
0.0129936 0.128417 0.0264914 0.00889183 0.125498 0.024352 0.00581449 0.122571 0.0218697 
0.00326089 0.119701 0.0190832 0.00169314 0.116937 0.0157242 -0.143464 0.135395 -0.104346 
-0.149704 0.140476 -0.0787174 -0.149623 0.146863 -0.0537212 -0.146186 0.153944 -0.0290612 
-0.137462 0.161876 -0.00667198 -0.12567 0.170302 0.0143987 -0.109764 0.178242 0.0322639 
-0.0912519 0.185874 0.0480989 -0.0705171 0.19137 0.0599412 -0.0482492 0.195393 0.06903 
-0.0264243 0.196554 0.0741585 -0.00493163 0.195569 0.0763168 0.0138362 0.192522 0.0757932 
0.0303837 0.187795 0.0730843 0.0433562 0.182455 0.0694162 0.0531662 0.176572 0.0648993 
0.0598098 0.171065 0.0605989 0.0634137 0.16592 0.0565062 0.0647194 0.161423 0.0530268 
0.0636311 0.157603 0.0501864 0.0610624 0.154264 0.0478452 0.0568201 0.151468 0.0460682 
0.0517682 0.148858 0.0444895 0.0457227 0.146474 0.0431541 0.039433 0.144052 0.0417539 
0.0328177 0.141577 0.0402674 0.0264174 0.138982 0.0385857 0.0203291 0.136213 0.036621 
0.0147604 0.13336 0.0344338 0.010012 0.130374 0.0318954 0.0058943 0.127383 0.0291233 
0.00286279 0.124385 0.0259487 0.000388254 0.121455 0.022494 -0.00103787 0.118651 0.0185119 
-0.137851 0.108727 -0.113113 -0.143289 0.117062 -0.0877619 -0.142449 0.126171 -0.06344 
-0.138272 0.135692 -0.0396644 -0.129254 0.145395 -0.0184691 -0.117424 0.155204 0.00122804 
-0.102205 0.164106 0.0177797 -0.0848389 0.172433 0.0323393 -0.0658303 0.178653 0.043505 
-0.045689 0.183419 0.0523302 -0.026005 0.185621 0.0580548 -0.00666404 0.1859 0.0614539 
0.0104533 0.184288 0.0627577 0.0257586 0.181136 0.0623542 0.0380655 0.177283 0.061108 
0.0477197 0.172809 0.0591163 0.0545304 0.168514 0.0571709 0.0586112 0.16439 0.0552699 
0.060441 0.160742 0.0537311 0.059926 0.157589 0.0525696 0.0578304 0.154797 0.051656 
0.0539482 0.152415 0.0510226 0.0491336 0.150136 0.0503466 0.0431746 0.147983 0.0496185 
0.0368959 0.14573 0.048605 0.0301908 0.143343 0.0472111 0.0236876 0.140795 0.0454467 
0.0174769 0.138012 0.0431451 0.0118125 0.135126 0.0405139 0.00701065 0.132076 0.0373621 
0.00287662 0.12902 0.0339421 -0.000107196 0.125955 0.0300604 -0.00249989 0.122969 0.0259238 
-0.00377989 0.120129 0.0213074 -0.127303 0.0826025 -0.110953 -0.132237 0.0932756 -0.0875501 
-0.131232 0.104338 -0.0651234 -0.127073 0.115607 -0.0432155 -0.118465 0.126579 -0.0237485 
-0.107275 0.137379 -0.00569886 -0.0931356 0.146996 0.00949262 -0.0771286 0.155865 0.0228739 
-0.0597754 0.162688 0.0333666 -0.0414939 0.168101 0.0418674 -0.0236187 0.171207 0.0478613 
-0.00604831 0.172582 0.0519752 0.00965789 0.172241 0.0544293 0.0238451 0.170504 0.0555311 
0.0354498 0.168042 0.055959 0.0447701 0.16494 0.0557906 0.0515059 0.161875 0.0556394 
0.0557605 0.158846 0.0555046 0.0578217 0.156141 0.0556038 0.0575982 0.153774 0.0559467 
0.0557227 0.15165 0.056354 0.0519798 0.149801 0.0568342 0.0472038 0.147968 0.0570468 
0.0411601 0.146155 0.056931 0.0347392 0.144178 0.0562933 0.0278154 0.141982 0.0549599 
0.0210995 0.139582 0.0530612 0.0146851 0.136887 0.0503426 0.008863 0.134068 0.0471813 
0.00397614 0.131052 0.0433209 -0.000190698 0.128027 0.0391644 -0.00311751 0.124988 0.0344979 
-0.00540981 0.122032 0.0296103 -0.00650777 0.119236 0.0243065 -0.116067 0.0565537 -0.10727 
-0.120537 0.069437 -0.0860467 -0.119452 0.082345 -0.0656857 -0.115415 0.0952662 -0.0457826 
-0.107317 0.107437 -0.0281186 -0.0968599 0.119173 -0.0117545 -0.0838554 0.129472 0.00207018 
-0.0692372 0.138861 0.0142866 -0.0535297 0.146271 0.024107 -0.0370708 0.152317 0.0322749 
-0.020958 0.156306 0.0384926 -0.00510494 0.158754 0.0432478 0.00922358 0.159663 0.0467578 
0.0223098 0.159317 0.0492532 0.0332074 0.158233 0.0512507 0.0421689 0.156497 0.0528077 
0.048796 0.154665 0.0543725 0.0531821 0.152742 0.0559447 0.0554339 0.150994 0.0576396 
0.0554625 0.149429 0.0594625 0.0537718 0.147988 0.0611758 0.0501374 0.146689 0.0627655 
0.0453725 0.145319 0.0638646 0.03922 0.143861 0.0643617 0.0326355 0.142174 0.0640984 
0.0254749 0.140184 0.062821 0.0185311 0.137947 0.0607807 0.0119017 0.135354 0.0576341 
0.00591323 0.132615 0.0539308 0.000937009 0.129648 0.0493485 -0.00326494 0.126668 0.044443 
-0.00613345 0.123666 0.038981 -0.00832278 0.120754 0.0333327 -0.00923367 0.118012 0.0273339 
-0.102399 0.0357489 -0.0971885 -0.106534 0.0496435 -0.0786632 -0.105644 0.0633924 -0.0607765 
-0.102084 0.077064 -0.043229 -0.0948202 0.0897737 -0.0275702 -0.0854067 0.101925 -0.0130081 
-0.0736883 0.112543 -0.000599702 -0.0605103 0.122191 0.0104446 -0.046343 0.129947 0.0195165 
-0.0314935 0.136399 0.0272283 -0.0168926 0.140985 0.0334066 -0.00247831 0.144172 0.0384349 
0.0106692 0.145957 0.0425406 0.0227844 0.146602 0.0458947 0.0329978 0.146519 0.0489341 
0.0415288 0.145793 0.0516953 0.0479168 0.14489 0.0545258 0.0522475 0.143816 0.057423 
0.054496 0.142814 0.0604131 0.0545757 0.141887 0.0635 0.0528843 0.141 0.0663627 
0.0491909 0.14016 0.068972 0.0442871 0.139194 0.0708939 0.037898 0.138073 0.0719723 
0.0310377 0.136693 0.0720531 0.0235492 0.134967 0.0708038 0.016301 0.132978 0.0685913 
0.00940129 0.130609 0.064982 0.00320347 0.128087 0.0607074 -0.00188612 0.125324 0.0553824 
-0.00613978 0.122542 0.0497163 -0.00895377 0.119729 0.0434627 -0.0110408 0.117001 0.0370611 
-0.0117594 0.114432 0.0303809 -0.0883256 0.015818 -0.086041 -0.092147 0.0305242 -0.0702997 
-0.0914976 0.0449465 -0.0549553 -0.0884731 0.0592181 -0.0398219 -0.0820991 0.0723564 -0.0262021 
-0.0737803 0.0848367 -0.0134612 -0.0633734 0.0957141 -0.00247749 -0.0516441 0.105576 0.00739331 
-0.0389996 0.113639 0.0157042 -0.0257238 0.12046 0.0229394 -0.0125931 0.125595 0.0290344 
0.000428858 0.129464 0.0342744 0.0124281 0.132064 0.0388992 0.023594 0.133632 0.0430227 
0.033127 0.134487 0.0470162 0.0412156 0.134712 0.0508945 0.0473427 0.134686 0.0549159 
0.0515868 0.134421 0.0590744 0.0537998 0.134129 0.0633095 0.053897 0.133812 0.0676246 
0.0521741 0.133457 0.0716105 0.0483936 0.13306 0.0752243 0.0433261 0.132489 0.0779584 
0.036679 0.131704 0.0796127 0.0295242 0.130633 0.0800327 0.0216925 0.12918 0.0788069 
0.0141272 0.127454 0.0764171 0.00694811 0.12533 0.0723394 0.000533719 0.123047 0.0674887 
-0.00467325 0.120513 0.0614174 -0.00898138 0.117955 0.0549887 -0.0117415 0.115357 0.0479442 
-0.0137263 0.112835 0.0407905 -0.0142519 0.110458 0.033431 -0.0739984 0.00185208 -0.0728951 
-0.0775602 0.0164992 -0.0596351 -0.0772085 0.0308221 -0.0466076 -0.0747776 0.0449729 -0.0337035 
-0.069327 0.0579702 -0.0219878 -0.062123 0.0702978 -0.0109621 -0.0529843 0.0810568 -0.00134393 
-0.0426203 0.0908224 0.0073827 -0.0313559 0.0988962 0.0148872 -0.0194706 0.105803 0.021549 
-0.00762196 0.111163 0.0273748 0.0041992 0.115361 0.0325737 0.01519 0.118388 0.0374 
0.0255043 0.120461 0.0419227 0.0343887 0.121837 0.0464809 0.0420084 0.122597 0.0510706 
0.0478092 0.12306 0.0558956 0.0518637 0.123236 0.0609467 0.0539356 0.123324 0.0660967 
0.0539422 0.123321 0.0713499 0.052099 0.123243 0.0762143 0.0481647 0.12308 0.0806389 
0.0428891 0.122742 0.0840348 0.0359672 0.122191 0.086168 0.0285141 0.121381 0.0868672 
0.020353 0.120226 0.0856545 0.0124855 0.118827 0.0831066 0.0050436 0.117075 0.0786228 
-0.00157794 0.115177 0.073278 -0.00690419 0.11305 0.0665737 -0.0112783 0.110891 0.0595017 
-0.0140125 0.108677 0.0517965 -0.0159311 0.106516 0.0440137 -0.0163142 0.104451 0.0360848 
-0.0596215 -0.0109499 -0.0593593 -0.0629345 0.00346822 -0.0485216 -0.0628914 0.017541 -0.0377668 
-0.0610655 0.0314303 -0.027056 -0.056545 0.0441754 -0.017218 -0.0504598 0.0562562 -0.00788685 
-0.0425808 0.0668232 0.000377198 -0.0335657 0.0764314 0.00796538 -0.0236537 0.084459 0.0146547 
-0.0131231 0.0913964 0.0207241 -0.00251978 0.0969177 0.0262444 0.00813798 0.101377 0.031353 
0.0181477 0.104755 0.0363188 0.0276293 0.107252 0.0411684 0.0358714 0.109068 0.0462154 
0.0430171 0.110282 0.0514372 0.0484787 0.111155 0.0569905 0.0523237 0.111702 0.0628621 
0.0542338 0.112106 0.0688626 0.0541286 0.112359 0.0749974 0.0521478 0.112507 0.0806924 
0.0480468 0.112536 0.0858901 0.0425544 0.112401 0.0899184 0.0353543 0.112064 0.0925115 
0.0276023 0.111507 0.0934782 0.0191145 0.110654 0.0922765 0.0109476 0.109596 0.0895744 
0.00324615 0.108239 0.0846966 -0.0035807 0.106755 0.0788737 -0.00902659 0.105069 0.0715584 
-0.0134689 0.103343 0.0638665 -0.0161828 0.101548 0.055526 -0.018042 0.0997754 0.0471382 
-0.0182925 0.0980473 0.0386612 -0.0461199 -0.0192237 -0.0462485 -0.0492656 -0.00542681 -0.0372958 
-0.0495322 0.0080119 -0.0283699 -0.0482692 0.0212603 -0.0194583 -0.0445971 0.0334209 -0.011208 
-0.0395261 0.0449498 -0.00334179 -0.0327776 0.0550571 0.00370973 -0.0249667 0.0642641 0.0102452 
-0.0162518 0.0720035 0.016126 -0.00691355 0.0787307 0.0215553 0.00259081 0.0841488 0.0266502 
0.0122197 0.088585 0.0314944 0.021343 0.0920064 0.0363677 0.0300544 0.0946009 0.0412649 
0.037674 0.0965244 0.0464829 0.0443277 0.0978543 0.0519849 0.0494107 0.0988131 0.0578951 
0.0529857 0.0994157 0.0641973 0.0546838 0.0998403 0.0706595 0.0544268 0.100079 0.0772885 
0.0523015 0.100214 0.0834565 0.0480644 0.10023 0.0891036 0.0424197 0.100132 0.0935048 
0.0350475 0.0998962 0.0963771 0.0271149 0.099522 0.0975138 0.0184351 0.0989634 0.0963365 
0.0100886 0.0982729 0.093563 0.00222512 0.0973912 0.0884751 -0.00473968 0.0964155 0.0823911 
-0.0102856 0.0952911 0.0747342 -0.0148051 0.0941144 0.0666903 -0.0175568 0.0928475 0.0579799 
-0.019434 0.0915606 0.0492315 -0.0196648 0.0902359 0.0404117 -0.0328153 -0.0264785 -0.0332333 
-0.035812 -0.0133912 -0.0260446 -0.0363884 -0.000672969 -0.0188478 -0.035679 0.0118493 -0.0116467 
-0.032837 0.0233504 -0.00491895 -0.0287567 0.0342587 0.00153401 -0.0231096 0.0438461 0.00740483 
-0.0164702 0.052597 0.012907 -0.00891758 0.0599939 0.0179808 -0.00073511 0.0664568 0.0227592 
0.00770329 0.071712 0.0274017 0.0163336 0.0760613 0.0319423 0.0245919 0.0794569 0.0366709 
0.0325471 0.0820756 0.0415528 0.0395485 0.0840317 0.0468703 0.0457063 0.0854019 0.0525733 
0.0504017 0.0863726 0.058757 0.0536933 0.0869597 0.065402 0.055168 0.0873394 0.0722384 
0.0547501 0.087503 0.0792743 0.0524789 0.0875693 0.085835 0.0481126 0.0875259 0.0918586 
0.0423301 0.0874296 0.0965744 0.0348096 0.0872686 0.0996852 0.026723 0.0870625 0.10097 
0.0178816 0.086796 0.0998199 0.00938223 0.0864797 0.0969938 0.00137878 0.0860909 0.0917371 
-0.00570881 0.0856449 0.0854408 -0.0113503 0.0851085 0.0775029 -0.015949 0.0845073 0.0691673 
-0.0187517 0.0837942 0.0601467 -0.0206641 0.0830141 0.0510929 -0.0209007 0.0821078 0.0419764 
-0.0206884 -0.0309273 -0.0214817 -0.0236627 -0.0186229 -0.0155951 -0.0245734 -0.00671975 -0.00972064 
-0.0243877 0.00497032 -0.0038526 -0.0222933 0.0156981 0.00164543 -0.0190906 0.0258672 0.00692861 
-0.0144139 0.0348123 0.0117816 -0.00880368 0.042982 0.0163621 -0.00227493 0.0499001 0.0206706 
0.00488731 0.0559551 0.0247914 0.012374 0.0608871 0.0289134 0.0201041 0.0649767 0.0330363 
0.0275638 0.0681617 0.0374521 0.0348031 0.0706096 0.0421067 0.041198 0.0724034 0.0472647 
0.0468459 0.0736187 0.052868 0.0511299 0.0744171 0.058986 0.0541045 0.0748153 0.0655981 
0.0553407 0.0749935 0.0724129 0.0547661 0.0749426 0.0794389 0.0523933 0.0748197 0.0859939 
0.0479876 0.0746153 0.0920165 0.0421962 0.0744342 0.0967405 0.0347039 0.0742819 0.0998706 
0.0266503 0.0741901 0.101189 0.0178484 0.0741788 0.100091 0.00937258 0.074208 0.0973261 
0.00136946 0.0742957 0.0921425 -0.00574363 0.0743667 0.0859137 -0.0114514 0.0744114 0.0780347 
-0.0161395 0.0743772 0.0697409 -0.0190714 0.0742071 0.0607327 -0.0211238 0.0739167 0.0516684 
-0.0215206 0.0734001 0.0424985 -0.0088634 -0.0346566 -0.010054 -0.011848 -0.0231539 -0.00535123 
-0.0130991 -0.0120901 -0.000694766 -0.0134294 -0.00125937 0.00393706 -0.0120614 0.00866593 0.00828041 
-0.00970737 0.0180655 0.0124563 -0.00596751 0.0263367 0.0163332 -0.00134997 0.0338931 0.0200207 
0.00419039 0.0402977 0.0235745 0.0103672 0.0459078 0.027036 0.0169315 0.0504755 0.03062 
0.0237865 0.0542612 0.0342959 0.0304646 0.0571881 0.0383559 0.0369985 0.0594153 0.0427287 
0.0427897 0.0609968 0.0476608 0.0479241 0.0620071 0.0530874 0.0517906 0.0625859 0.0590529 
0.0544398 0.0627507 0.0655355 0.0554337 0.0626873 0.0722272 0.0547033 0.0623863 0.0791365 
0.0522402 0.0620429 0.0855837 0.0478184 0.0616516 0.0915085 0.042051 0.0613639 0.096162 
0.0346321 0.0612032 0.0992554 0.0266595 0.0612119 0.100578 0.0179487 0.0614463 0.0995394 
0.00954156 0.0618136 0.0968641 0.00157476 0.0623737 0.0918153 -0.00553889 0.0629585 0.0857257 
-0.0113054 0.0635824 0.0779929 -0.0160855 0.0641131 0.0698264 -0.0191667 0.0644831 0.0609133 
-0.021386 0.0646782 0.0519142 -0.0219826 0.0645438 0.0427533 0.00186917 -0.0367932 -7.05593e-06 
-0.00127146 -0.0260356 0.00383144 -0.00291645 -0.0157685 0.00756814 -0.00376688 -0.00576185 0.0112507 
-0.00307585 0.00337793 0.0146757 -0.00148977 0.0120144 0.0179509 0.0014138 0.0196017 0.0210021 
0.00515178 0.0265246 0.0239114 0.00981368 0.0323809 0.0267724 0.0151128 0.0375018 0.0296001 
0.0208455 0.0416499 0.0326237 0.0269035 0.0450685 0.0357941 0.0328556 0.0476713 0.0393956 
0.0387214 0.0496092 0.0433483 0.0439286 0.0509173 0.0478754 0.0485532 0.0516684 0.0529106 
0.0520026 0.0519889 0.0584748 0.054324 0.0518963 0.0645468 0.0550901 0.0515828 0.0708161 
0.0542361 0.0510394 0.077291 0.0517466 0.0504885 0.083326 0.0474084 0.0499291 0.0888638 
0.0417935 0.0495426 0.0932115 0.0346116 0.0493682 0.0960987 0.0268893 0.04945 0.0973346 
0.0184464 0.0498734 0.096369 0.0102623 0.0505021 0.0938649 0.00245375 0.0514286 0.0891302 
-0.00457648 0.0524124 0.0833902 -0.0103777 0.0534868 0.076063 -0.0152627 0.0544548 0.0682809 
-0.0185697 0.0552399 0.0597154 -0.0210604 0.0557997 0.0510138 -0.0220147 0.0559358 0.0420563 
0.0122855 -0.0384689 0.0096403 0.00894662 -0.0284399 0.0127069 0.00689234 -0.018957 0.0156102 
0.00552053 -0.00976435 0.0184267 0.00554896 -0.00140518 0.0210015 0.00639045 0.00647 0.0234361 
0.00848683 0.0133706 0.0257051 0.011378 0.019654 0.0278693 0.0151933 0.0249522 0.0300554 
0.0196459 0.0295709 0.0322567 0.0245733 0.0332835 0.0347133 0.0298568 0.0363167 0.0373614 
0.035099 0.038576 0.0404747 0.0403075 0.0402049 0.0439672 0.0449363 0.0412221 0.0480375 
0.0490522 0.0416981 0.052619 0.0520848 0.0417491 0.05771 0.0540776 0.0413922 0.06329 
0.05462 0.0408262 0.0690504 0.0536518 0.0400426 0.0749988 0.0511545 0.0392879 0.0805335 
0.0469288 0.0385659 0.0856006 0.0415035 0.0380829 0.0895744 0.034606 0.0378932 0.0922063 
0.0271829 0.0380402 0.0933294 0.0190591 0.0386362 0.0924405 0.0111428 0.0395041 0.0901313 
0.00352776 0.0407663 0.0857625 -0.00339475 0.0421159 0.080433 -0.00922373 0.0436034 0.0735865 
-0.0142173 0.044972 0.0662632 -0.0177722 0.0461357 0.0581184 -0.0205648 0.0470256 0.0497817 
-0.0219223 0.0473997 0.0410838 0.0217848 -0.0391954 0.017967 0.018113 -0.0298229 0.0204661 
0.0155893 -0.0210491 0.0227393 0.0136756 -0.0125933 0.0248924 0.0130675 -0.00494648 0.0267966 
0.0132175 0.00223071 0.0285561 0.0145797 0.00849594 0.030176 0.0167095 0.0141836 0.0317074 
0.0197645 0.0189566 0.0332965 0.0234575 0.0230988 0.0349254 0.0276567 0.0263961 0.0368361 
0.0322356 0.0290595 0.0389581 0.0368253 0.0309932 0.0415498 0.0414235 0.0323322 0.0445241 
0.0455119 0.0330876 0.0480551 0.0491493 0.0333269 0.0520784 0.0517945 0.0331613 0.0565749 
0.0534873 0.032607 0.0615258 0.053843 0.031866 0.066636 0.052806 0.0309306 0.0719122 
0.0503591 0.0300562 0.0768113 0.0463186 0.0292508 0.0812842 0.0411651 0.0287261 0.0847831 
0.0346457 0.028546 0.0870865 0.0276153 0.0287466 0.088051 0.0199034 0.029455 0.0872303 
0.0123357 0.0304704 0.0851324 0.00497714 0.0319311 0.0811825 -0.00179559 0.0334949 0.0763329 
-0.0076433 0.0352215 0.0700626 -0.012761 0.0368195 0.0632978 -0.0166216 0.0381956 0.0556816 
-0.0197982 0.0392606 0.0478118 -0.0216875 0.0397396 0.0394647 0.0309866 -0.0396142 0.0258654 
0.0269383 -0.0308747 0.0278632 0.0239257 -0.0227854 0.0295722 0.0214633 -0.0150417 0.0311278 
0.0202272 -0.00808503 0.0324194 0.019703 -0.00158531 0.0335578 0.0203546 0.00406114 0.0345717 
0.0217509 0.00916717 0.0355067 0.0240735 0.0134258 0.036524 0.0270351 0.0171 0.037598 
0.0305311 0.0199883 0.0389696 0.0344281 0.0222872 0.0405644 0.0383837 0.0239009 0.0426235 
0.0423871 0.0249562 0.0450611 0.0459474 0.0254594 0.0480258 0.049116 0.0254744 0.051457 
0.0513833 0.0251093 0.0553198 0.0527855 0.0243792 0.0595971 0.0529664 0.0234884 0.0640112 
0.0518753 0.02243 0.0685678 0.0494977 0.0214632 0.0727875 0.0456659 0.0205999 0.0766262 
0.0408109 0.0200512 0.0796174 0.0347001 0.0198888 0.0815686 0.0280926 0.0201393 0.0823598 
0.0208229 0.0209405 0.0816044 0.0136299 0.0220737 0.0797232 0.00654826 0.0236883 0.0762094 
-6.1044e-05 0.0254172 0.0718621 -0.00592456 0.0273267 0.0661989 -0.0111714 0.0290984 0.0600252 
-0.0153563 0.030633 0.0529724 -0.0189437 0.0318229 0.0456026 -0.0214065 0.0323637 0.037636 
0.0393957 -0.0393264 0.0324761 0.0348706 -0.0311818 0.0341029 0.031326 -0.0237211 0.0353881 
0.0283023 -0.0166238 0.0364917 0.0264614 -0.0102876 0.0373106 0.0253071 -0.00439335 0.0379643 
0.0253085 0.000702988 0.0384934 0.0260418 0.00529396 0.0389435 0.0277053 0.00909979 0.0394809 
0.0300104 0.0123641 0.0400784 0.032874 0.0148993 0.0409693 0.0361566 0.0168875 0.0420804 
0.03954 0.0182372 0.0436339 0.0430056 0.0190667 0.0455479 0.0460914 0.0193823 0.0479497 
0.0488412 0.0192432 0.0507829 0.0507789 0.0187567 0.0540045 0.0519369 0.0179365 0.0575989 
0.0519876 0.0169837 0.0613125 0.0508847 0.0158927 0.0651501 0.0486142 0.0149144 0.0686953 
0.0450238 0.0140636 0.07191 0.040494 0.0135386 0.0743999 0.0348113 0.0134135 0.0760003 
0.028642 0.0137041 0.0766086 0.021824 0.014549 0.0758939 0.0150134 0.0157262 0.0741968 
0.00821344 0.017385 0.0710751 0.00176836 0.0191583 0.0671884 -0.00411637 0.0211124 0.0620934 
-0.00950785 0.0229238 0.0564793 -0.0140498 0.0244893 0.0499712 -0.018098 0.0256906 0.0430876 
-0.0212168 0.0262062 0.0354973 0.0475186 -0.0387834 0.0386218 0.0424804 -0.03122 0.0399247 
0.0383883 -0.0243676 0.0408366 0.0347988 -0.0178931 0.0415408 0.0323613 -0.0121522 0.0419376 