# vtk DataFile Version 3.0
vtk output
ASCII
DATASET RECTILINEAR_GRID
FIELD FieldData 2
base_index 1 3 int
0 68 68 
avtOriginalBounds 1 6 double
-10 -3.33333 3.33333 10 3.33333 10 
DIMENSIONS 34 34 34
X_COORDINATES 34 float
-10 -9.79798 -9.59596 -9.39394 -9.19192 -8.9899 -8.78788 -8.58586 -8.38384 
-8.18182 -7.9798 -7.77778 -7.57576 -7.37374 -7.17172 -6.9697 -6.76768 -6.56566 
-6.36364 -6.16162 -5.9596 -5.75758 -5.55556 -5.35354 -5.15152 -4.9495 -4.74747 
-4.54545 -4.34343 -4.14141 -3.93939 -3.73737 -3.53535 -3.33333 
Y_COORDINATES 34 float
3.33333 3.53535 3.73737 3.93939 4.14141 4.34343 4.54545 4.74747 4.94949 
5.15152 5.35354 5.55556 5.75758 5.9596 6.16162 6.36364 6.56566 6.76768 
6.9697 7.17172 7.37374 7.57576 7.77778 7.9798 8.18182 8.38384 8.58586 
8.78788 8.9899 9.19192 9.39394 9.59596 9.79798 10 
Z_COORDINATES 34 float
3.33333 3.53535 3.73737 3.93939 4.14141 4.34343 4.54545 4.74747 4.94949 
5.15152 5.35354 5.55556 5.75758 5.9596 6.16162 6.36364 6.56566 6.76768 
6.9697 7.17172 7.37374 7.57576 7.77778 7.9798 8.18182 8.38384 8.58586 
8.78788 8.9899 9.19192 9.39394 9.59596 9.79798 10 
POINT_DATA 39304
FIELD FieldData 1
grad 3 39304 float
0.0325974 0.0080623 -0.0193538 0.0320427 0.00876084 -0.0190638 0.031488 0.00945939 -0.0187738 
0.0305183 0.0100699 -0.0181625 0.02954 0.0106785 -0.0175445 0.0288939 0.0111569 -0.0165713 
0.028262 0.0116297 -0.0155829 0.028116 0.0119342 -0.0142151 0.0280018 0.0122277 -0.0128225 
0.0285188 0.012325 -0.0110289 0.029092 0.0124049 -0.00919968 0.030425 0.0122744 -0.00693817 
0.0318444 0.0121201 -0.00462755 0.034133 0.0117565 -0.00182402 0.0365428 0.0113637 0.00104828 
0.0399108 0.0107778 0.00453466 0.0434384 0.0101597 0.00812338 0.0479657 0.00938199 0.0125589 
0.052688 0.00857319 0.0171597 0.0582857 0.00766132 0.0230273 0.0640804 0.00672627 0.02918 
0.0701103 0.00577009 0.0372737 0.0762005 0.00480849 0.0458651 0.0806292 0.00391744 0.0571867 
0.0845769 0.00304681 0.0692987 0.0830886 0.00228268 0.0840212 0.0798373 0.00155308 0.0995904 
0.0676485 0.000788911 0.113998 0.0522324 1.22576e-05 0.127987 0.0306411 -0.00109345 0.132877 
0.00657971 -0.00233077 0.134128 -0.0145076 -0.00395184 0.124061 -0.0342827 -0.0057422 0.109001 
-0.0452477 -0.00759131 0.0898221 0.0332406 0.00628728 -0.0176472 0.0326622 0.00684775 -0.0173205 
0.0320837 0.00740821 -0.0169938 0.031056 0.00786185 -0.0163662 0.030019 0.00831327 -0.0157323 
0.0292933 0.00861564 -0.0147637 0.0285809 0.00891166 -0.0137809 0.0283367 0.00902119 -0.0124359 
0.028123 0.00911856 -0.0110673 0.028528 0.00900133 -0.00930819 0.0289879 0.00886503 -0.00751439 
0.0302007 0.00849595 -0.00528961 0.0314991 0.00810042 -0.00301586 0.0336649 0.00745915 -0.000241554 
0.0359518 0.00678358 0.00260259 0.0391996 0.00584579 0.00607432 0.0426075 0.00486429 0.00965063 
0.0470234 0.00359344 0.0140882 0.051636 0.00226613 0.0186938 0.0571395 0.000607885 0.0245772 
0.0628434 -0.00112482 0.030748 0.0688061 -0.00324322 0.0388643 0.0748351 -0.00546051 0.0474795 
0.0792322 -0.00810395 0.0588222 0.083157 -0.0108708 0.0709546 0.0816736 -0.0139614 0.0856895 
0.0784362 -0.0171572 0.101269 0.0662759 -0.0201622 0.115666 0.0508936 -0.0230984 0.129637 
0.0293431 -0.0249812 0.134447 0.00532542 -0.0264427 0.135592 -0.0156975 -0.0266146 0.12533 
-0.0353992 -0.0262175 0.110036 -0.0462539 -0.0252205 0.0905637 0.0337053 0.00473688 -0.015713 
0.0330966 0.0051847 -0.0153461 0.0324879 0.00563251 -0.0149791 0.0313891 0.00595455 -0.0143362 
0.03028 0.00627397 -0.0136876 0.029461 0.00642377 -0.0127306 0.0286543 0.00656635 -0.0117604 
0.0282972 0.00650102 -0.0104512 0.0279695 0.00642212 -0.00911993 0.0282451 0.0061064 -0.00741426 
0.0285745 0.00576963 -0.00567531 0.029642 0.00517453 -0.00351203 0.0307934 0.00455008 -0.00130053 
0.032792 0.00364211 0.00141226 0.0349088 0.00269459 0.00419499 0.0379528 0.00141689 0.0076045 
0.0411514 8.41515e-05 0.0111185 0.0453027 -0.00166327 0.015475 0.0496399 -0.00349161 0.019996 
0.0547849 -0.00586711 0.025731 0.0601116 -0.00836572 0.0317391 0.065596 -0.0115878 0.0395368 
0.0711209 -0.0149954 0.0477933 0.074983 -0.0192739 0.0584584 0.0783637 -0.0238046 0.0698208 
0.0766284 -0.0290197 0.0832955 0.0732339 -0.0344568 0.0974552 0.0617031 -0.0394597 0.110204 
0.0472342 -0.0443058 0.122442 0.0272619 -0.0468431 0.126407 0.00508825 -0.0484568 0.127062 
-0.0143598 -0.0472744 0.117569 -0.0326054 -0.0448586 0.103598 -0.0427719 -0.0412144 0.0856018 
0.0341118 0.00328799 -0.0137003 0.0334699 0.0036344 -0.0132925 0.032828 0.0039808 -0.0128847 
0.0316516 0.00418273 -0.0122282 0.0304641 0.00438164 -0.0115665 0.0295444 0.00439005 -0.0106253 
0.0286361 0.00439036 -0.0096722 0.0281585 0.00416065 -0.00840637 0.027709 0.00391594 -0.00712014 
0.0278472 0.0034119 -0.00547829 0.0280377 0.00288481 -0.00380483 0.02895 0.00207532 -0.00171541 
0.0299444 0.00123374 0.000421266 0.0317604 7.57469e-05 0.00305876 0.0336911 -0.0011264 0.00576613 
0.036504 -0.00271668 0.00909659 0.0394638 -0.00437165 0.0125309 0.0433025 -0.00654813 0.0167803 
0.0473127 -0.00882637 0.0211888 0.0520237 -0.011833 0.0267274 0.0568924 -0.0150034 0.0325202 
0.0617992 -0.0191694 0.0399088 0.0667158 -0.0235905 0.0477067 0.0699536 -0.0292175 0.0575371 
0.0727054 -0.0351935 0.067956 0.0707224 -0.042086 0.0799487 0.0672038 -0.0492757 0.0924517 
0.0564873 -0.0557823 0.103346 0.0431715 -0.0620422 0.113659 0.0251204 -0.065016 0.11672 
0.00517506 -0.0666752 0.11688 -0.0123572 -0.0643894 0.108303 -0.028825 -0.060363 0.0958706 
-0.038125 -0.054583 0.0796533 0.0343864 0.00206919 -0.0115094 0.0337046 0.00233967 -0.0110595 
0.0330227 0.00261015 -0.0106095 0.0317543 0.00271799 -0.00994304 0.0304737 0.00282244 -0.00927202 
0.0294371 0.00271482 -0.00835659 0.0284107 0.00259818 -0.00743076 0.027795 0.00222786 -0.00622524 
0.0272061 0.00184099 -0.00500149 0.0271884 0.00117171 -0.00344701 0.0272214 0.00047733 -0.00186314 
0.0279561 -0.00052019 0.00012436 0.0287706 -0.00155216 0.00215772 0.0303693 -0.00292242 0.00468869 
0.0320775 -0.00433989 0.0072891 0.0345969 -0.0061808 0.0105023 0.0372515 -0.00809227 0.0138177 
0.0406688 -0.0105901 0.0179008 0.0442348 -0.0132024 0.0221336 0.0483409 -0.0166447 0.0273669 
0.0525685 -0.0202738 0.0328252 0.0566724 -0.0250214 0.0395999 0.0607446 -0.0300558 0.0467121 
0.0631558 -0.0363812 0.0553522 0.0650861 -0.0430804 0.0644346 0.0628648 -0.0506369 0.0744423 
0.0592971 -0.0584714 0.0847502 0.0498138 -0.0653614 0.0933261 0.0381945 -0.0719105 0.101276 
0.022842 -0.0748269 0.103299 0.00599625 -0.0762902 0.102951 -0.00884756 -0.073469 0.0956266 
-0.0228082 -0.0687574 0.0852239 -0.0308376 -0.0620011 0.071469 0.0346276 0.000933369 -0.0092662 
0.0339033 0.00113821 -0.00877402 0.033179 0.00134305 -0.00828184 0.031813 0.00136805 -0.0076073 
0.0304337 0.00138931 -0.00692896 0.0292731 0.00117762 -0.00604415 0.0281219 0.000956012 -0.00515056 
0.0273611 0.000457533 -0.00401377 0.0266257 -5.9002e-05 -0.00286111 0.0264457 -0.000880246 -0.00140565 
0.0263151 -0.00172857 7.67259e-05 0.0268677 -0.00289813 0.00194929 0.027498 -0.00410419 0.0038662 
0.0288755 -0.00566395 0.00627926 0.0303573 -0.00727307 0.00876156 0.0325771 -0.00932865 0.0118493 
0.0349199 -0.0114586 0.0150379 0.0379067 -0.014219 0.018948 0.0410191 -0.0171023 0.0229988 
0.044515 -0.0208821 0.0279205 0.0480971 -0.0248638 0.0330381 0.0514144 -0.0300299 0.0391997 
0.0546638 -0.0354997 0.045629 0.0563077 -0.0422694 0.0531144 0.0574868 -0.0494153 0.0609055 
0.0551148 -0.0572995 0.0690515 0.051591 -0.0654232 0.0773125 0.0433779 -0.0723813 0.0837816 
0.0334715 -0.0789185 0.0896038 0.020765 -0.0816619 0.0907194 0.00693847 -0.0828879 0.0899523 
-0.00526711 -0.0797087 0.0838056 -0.0167576 -0.074586 0.0752854 -0.0234857 -0.0672279 0.0638532 
0.0347855 5.00533e-06 -0.00689194 0.0340124 0.000169936 -0.00635736 0.0332394 0.000334866 -0.00582278 
0.0317616 0.000305158 -0.00514512 0.0302692 0.000271394 -0.00446448 0.0289679 -1.4487e-05 -0.00362244 
0.0276747 -0.000311095 -0.00277353 0.0267508 -0.000906602 -0.00172644 0.025851 -0.0015216 -0.000666425 
0.0254933 -0.0024616 0.000660905 0.0251839 -0.00343049 0.00201199 0.0255432 -0.00473211 0.00373712 
0.0259785 -0.00607155 0.00550474 0.0271248 -0.00776385 0.00777141 0.0283704 -0.00950539 0.0101077 
0.0302753 -0.0116858 0.0130492 0.0322901 -0.0139393 0.0160915 0.0348238 -0.0168149 0.019812 
0.0374587 -0.0198119 0.0236648 0.0403309 -0.0236837 0.0282593 0.0432566 -0.0277524 0.0330206 
0.0458283 -0.0329293 0.0385712 0.0483091 -0.0383904 0.0443242 0.049334 -0.0449686 0.0507443 
0.0499374 -0.0518703 0.0573575 0.0476335 -0.0592416 0.0639493 0.0443867 -0.0667651 0.0705341 
0.0375359 -0.0730025 0.0754262 0.0293837 -0.0787755 0.0797072 0.0191915 -0.0810569 0.0802419 
0.00818323 -0.0819418 0.0792782 -0.00150972 -0.0788484 0.0741225 -0.0106224 -0.0739997 0.0671175 
-0.015973 -0.0669765 0.0576587 0.0349316 -0.000866666 -0.00448595 0.0341081 -0.000732579 -0.00390869 
0.0332845 -0.000598493 -0.00333142 0.0316911 -0.00067193 -0.00265206 0.0300816 -0.00074969 -0.00197058 
0.0286344 -0.00109667 -0.00117542 0.027194 -0.00145511 -0.000375419 0.0261017 -0.00213246 0.000574089 
0.025032 -0.00283061 0.00153334 0.024493 -0.00387222 0.00272068 0.0240011 -0.00494437 0.00392829 
0.0241674 -0.00635858 0.00549258 0.0244086 -0.00781166 0.00709741 0.0253294 -0.00961275 0.00920805 
0.026345 -0.0114624 0.0113893 0.0279453 -0.0137358 0.0141829 0.0296431 -0.0160799 0.0170786 
0.0317409 -0.0190254 0.0206167 0.0339169 -0.0220882 0.0242803 0.0361988 -0.0259861 0.0285663 
0.0385046 -0.030072 0.0329924 0.040392 -0.0351685 0.0379758 0.042172 -0.0405242 0.043102 
0.0426642 -0.0468021 0.0485535 0.0427837 -0.053347 0.0540991 0.0406091 -0.0601084 0.0593114 
0.0376907 -0.0669401 0.0644155 0.032154 -0.0724095 0.0679416 0.025672 -0.077387 0.0708978 
0.0178266 -0.0792144 0.0709571 0.00943589 -0.0797817 0.0698576 0.00208805 -0.0768306 0.0656061 
-0.00479968 -0.0723273 0.0599639 -0.00882818 -0.0657546 0.0522891 0.0350449 -0.00158133 -0.00199213 
0.0341663 -0.00145297 -0.00137141 0.0332878 -0.00132462 -0.000750692 0.0315677 -0.00141137 -7.3543e-05 
0.02983 -0.0015026 0.000604778 0.0282226 -0.00187444 0.00134166 0.0266208 -0.00225821 0.00208103 
0.025345 -0.00297536 0.00291113 0.0240904 -0.00371425 0.00374715 0.0233596 -0.00481001 0.00476166 
0.0226753 -0.0059375 0.00579203 0.0226498 -0.00741035 0.00715842 0.0226992 -0.00892245 0.00856299 
0.0234099 -0.0107666 0.0104909 0.0242128 -0.012657 0.0124919 0.0255372 -0.0149353 0.0151333 
0.0269484 -0.0172783 0.0178815 0.0286584 -0.020168 0.0212574 0.0304268 -0.0231645 0.0247558 
0.0322105 -0.0269061 0.0287854 0.0339977 -0.0308154 0.0329345 0.0353707 -0.0355792 0.0374717 
0.0366376 -0.0405621 0.0421083 0.0368362 -0.0462379 0.0468589 0.0367256 -0.0521143 0.0516425 
0.0348502 -0.0579979 0.055959 0.0324025 -0.063884 0.060124 0.0280468 -0.0684543 0.0628683 
0.0230021 -0.0725495 0.0650996 0.0170398 -0.0739446 0.0649752 0.0107104 -0.0742596 0.0639086 
0.00524371 -0.0716078 0.0603202 0.000157699 -0.0676471 0.0556193 -0.00270243 -0.0618453 0.0492037 
0.0351635 -0.00227 0.000516623 0.0342295 -0.00214027 0.00118175 0.0332955 -0.00201054 0.00184687 
0.0314476 -0.00210079 0.00252192 0.0295808 -0.00219561 0.00319717 0.0278114 -0.00257904 0.00387424 
0.0260461 -0.00297475 0.00455139 0.0245845 -0.00371448 0.00525777 0.0231427 -0.00447665 0.00596604 
0.0222188 -0.00560584 0.00679971 0.021341 -0.00676766 0.00764451 0.0211261 -0.00827677 0.00880263 
0.0209865 -0.00982533 0.00999635 0.0214952 -0.0116906 0.0117342 0.0220945 -0.0136001 0.0135479 
0.0231579 -0.0158624 0.0160376 0.0242987 -0.0181836 0.0186401 0.0256452 -0.0209956 0.0218632 
0.0270318 -0.0239034 0.0252074 0.0283557 -0.0274639 0.0290012 0.0296655 -0.0311713 0.0328962 
0.0305788 -0.0355792 0.0370283 0.0313905 -0.0401667 0.0412213 0.0313516 -0.0452332 0.0453465 
0.0310666 -0.0504384 0.049452 0.0295077 -0.0554706 0.0529846 0.0275357 -0.0604466 0.0563313 
0.0242945 -0.0641722 0.0584075 0.0205949 -0.0674462 0.060025 0.0163724 -0.0684515 0.0597646 
0.0119407 -0.0685493 0.058753 0.00821039 -0.0662025 0.0557715 0.00478946 -0.0627771 0.0519208 
0.00302517 -0.057742 0.0466395 0.0352982 -0.00287855 0.00307142 0.0343077 -0.00272553 0.00378387 
0.0333172 -0.00257251 0.00449632 0.0313382 -0.00263596 0.00516961 0.0293387 -0.00270392 0.00584207 
0.0274015 -0.00305805 0.00645462 0.0254671 -0.00342436 0.00706462 0.0238126 -0.00413361 0.00763395 
0.0221764 -0.00486521 0.00820063 0.0210556 -0.00596397 0.0088287 0.0199806 -0.00709536 0.00946222 
0.0195835 -0.00857165 0.0103801 0.0192635 -0.0100871 0.0113304 0.0195957 -0.0119062 0.0128551 
0.0200188 -0.0137677 0.01446 0.0208678 -0.0159497 0.0167998 0.0217878 -0.0181852 0.0192621 
0.0228454 -0.0208516 0.0223617 0.0239299 -0.0236021 0.0255856 0.0249126 -0.0269051 0.0292071 
0.0258723 -0.0303324 0.0329181 0.0264941 -0.0343128 0.0367723 0.0270292 -0.0384351 0.0406631 
0.026926 -0.0428703 0.0443954 0.0266382 -0.0473961 0.0480818 0.0254491 -0.0516578 0.0511754 
0.0239678 -0.0558338 0.0540766 0.0216362 -0.0588822 0.0558354 0.0189975 -0.0615234 0.0571817 
0.0160734 -0.06227 0.056932 0.0130351 -0.0622588 0.0560438 0.0105944 -0.0602345 0.0534956 
0.00841722 -0.0573219 0.0502149 0.0075251 -0.05304 0.0456819 0.0354493 -0.00349262 0.00562574 
0.0344034 -0.00331209 0.00638722 0.0333574 -0.00313156 0.0071487 0.0312498 -0.00316129 0.00782225 
0.02912 -0.0031954 0.00849396 0.0270176 -0.00350954 0.00904439 0.0249164 -0.00383559 0.00958965 
0.0230715 -0.00449894 0.0100246 0.0212433 -0.00518429 0.0104523 0.0199272 -0.0062327 0.0108768 
0.0186567 -0.00731337 0.011301 0.018079 -0.00873539 0.0119789 0.0175799 -0.0101962 0.0126855 
0.0177388 -0.0119514 0.0139952 0.0179894 -0.0137477 0.015389 0.0186329 -0.0158391 0.0175761 
0.0193419 -0.0179798 0.0198955 0.0201289 -0.0204968 0.0228705 0.0209312 -0.0230873 0.0259736 
0.0216019 -0.0261342 0.0294286 0.0222429 -0.0292838 0.0329628 0.0226085 -0.0328473 0.0365581 
0.0229035 -0.0365171 0.0401691 0.0227631 -0.0403491 0.0435458 0.0224965 -0.044228 0.0468548 
0.0216719 -0.0477687 0.0495606 0.0206663 -0.0511996 0.0520707 0.0191885 -0.0536272 0.0535581 
0.0175401 -0.0556924 0.0546763 0.0158176 -0.0562134 0.0544505 0.0140655 -0.0561167 0.053687 
0.012816 -0.0544082 0.0515381 0.0117882 -0.0519887 0.0487778 0.0117085 -0.0484298 0.044924 
0.0356567 -0.00412576 0.00817845 0.0345593 -0.00390316 0.00899482 0.0334619 -0.00368055 0.00981119 
0.0312336 -0.00365264 0.010492 0.0289818 -0.00362878 0.01117 0.0267231 -0.00386596 0.0116665 
0.0244641 -0.00411424 0.0121554 0.0224369 -0.00467846 0.012465 0.0204248 -0.00526328 0.0127629 
0.0189193 -0.00619256 0.0129909 0.017459 -0.00715247 0.0132128 0.0167055 -0.00844609 0.013651 
0.0160323 -0.00977764 0.0141139 0.0160293 -0.0114079 0.0152015 0.0161199 -0.0130799 0.0163763 
0.0165885 -0.0150452 0.0184013 0.0171202 -0.0170593 0.0205681 0.0177 -0.019414 0.0234154 
0.0182891 -0.021835 0.0263955 0.0187486 -0.0246308 0.0297038 0.0191789 -0.0275108 0.033086 
0.0194109 -0.030694 0.0364888 0.0195921 -0.033955 0.0398969 0.0195073 -0.0372809 0.0430471 
0.0193455 -0.0406257 0.0461226 0.0188669 -0.0436162 0.0486176 0.0182855 -0.0464917 0.0509243 
0.0174685 -0.0484929 0.0522995 0.0165664 -0.0501785 0.0533382 0.0157113 -0.0505879 0.0531819 
0.0148748 -0.0504869 0.0525476 0.0144767 -0.0490717 0.0506803 0.0142719 -0.0470768 0.048269 
0.0147986 -0.044137 0.0448559 0.035884 -0.00479218 0.0107147 0.0347374 -0.00452686 0.0115878 
0.0335907 -0.00426155 0.0124609 0.0312469 -0.00417356 0.0131521 0.0288781 -0.00408927 0.0138396 
0.0264693 -0.00424454 0.0142877 0.0240589 -0.00441 0.0147257 0.021856 -0.004867 0.0149189 
0.0196666 -0.00534302 0.0150961 0.0179764 -0.00614202 0.0151406 0.0163306 -0.00696973 0.0151732 
0.0154012 -0.00812246 0.0153853 0.0145533 -0.00931212 0.0156177 0.0143851 -0.0108073 0.0164885 
0.0143118 -0.0123451 0.0174485 0.0146053 -0.0141794 0.0193033 0.01496 -0.0160632 0.0213073 
0.0153418 -0.0182565 0.0240114 0.0157288 -0.0205102 0.0268522 0.0159959 -0.023062 0.030002 
0.0162359 -0.025681 0.0332215 0.016355 -0.0284997 0.0364301 0.0164431 -0.0313696 0.039636 
0.0164248 -0.0342171 0.0425687 0.0163757 -0.0370581 0.0454223 0.0162314 -0.0395356 0.0477219 
0.0160563 -0.0418951 0.0498418 0.0158599 -0.0435056 0.0511168 0.0156559 -0.0448456 0.0520867 
0.0156067 -0.0451611 0.0519982 0.0156193 -0.0450669 0.0514864 0.01601 -0.0439364 0.0498802 
0.0165677 -0.0423489 0.0477913 0.0176583 -0.0400011 0.0447839 0.0361888 -0.00558838 0.013187 
0.0350015 -0.00527788 0.014124 0.0338142 -0.00496738 0.0150609 0.0313745 -0.00480985 0.0157748 
0.0289088 -0.00465551 0.0164841 0.0263746 -0.00470955 0.0169049 0.0238374 -0.00477246 0.0173134 
0.0214847 -0.00509077 0.017425 0.0191439 -0.00542574 0.0175173 0.0172867 -0.00605089 0.0174285 
0.0154724 -0.00670184 0.0173237 0.014367 -0.00766491 0.0173618 0.0133423 -0.00866345 0.017416 
0.0129954 -0.00998383 0.0180907 0.0127432 -0.0113491 0.0188519 0.0128606 -0.0130338 0.0205045 
0.0130396 -0.0147717 0.0223057 0.0132596 -0.0168079 0.0248066 0.0134875 -0.0189023 0.0274441 
0.013635 -0.0212385 0.0303897 0.0137643 -0.0236291 0.0334047 0.0138514 -0.0261453 0.0364127 
0.0139276 -0.0286936 0.0394191 0.0140181 -0.03117 0.0421699 0.0141127 -0.0336256 0.0448468 
0.0142575 -0.0357352 0.0470108 0.0144186 -0.0377326 0.0490084 0.014686 -0.0390911 0.0502306 
0.0149918 -0.040219 0.0511728 0.015509 -0.0405093 0.0511456 0.0161107 -0.0404647 0.0507307 
0.0170468 -0.0395857 0.0493054 0.0181304 -0.0383386 0.0474345 0.0196192 -0.0364767 0.0446963 
0.0365091 -0.00643707 0.0156259 0.0352838 -0.00608409 0.0166277 0.0340585 -0.00573112 0.0176294 
0.0315289 -0.00550621 0.0183686 0.0289721 -0.00528397 0.0191024 0.0263197 -0.00523845 0.019501 
0.0236632 -0.00520045 0.0198853 0.0211682 -0.00538138 0.0199245 0.0186837 -0.00557659 0.0199411 
0.0166649 -0.00602897 0.0197328 0.0146875 -0.00650421 0.0195045 0.0134064 -0.0072779 0.0193832 
0.0122044 -0.00808549 0.0192741 0.0116747 -0.00922945 0.0197589 0.0112387 -0.0104203 0.0203265 
0.0111769 -0.0119518 0.0217688 0.0111775 -0.01354 0.0233568 0.0112396 -0.0154162 0.0256375 
0.0113137 -0.0173485 0.0280534 0.0113519 -0.0194706 0.0307789 0.0113819 -0.0216353 0.033574 
0.0114473 -0.0238577 0.0363718 0.0115218 -0.026095 0.0391704 0.0117236 -0.028217 0.0417357 
0.0119622 -0.0303057 0.0442335 0.0123844 -0.0320687 0.0462614 0.0128661 -0.033726 0.0481368 
0.0135694 -0.0348509 0.0493047 0.0143528 -0.0357836 0.0502172 0.0153976 -0.0360558 0.0502452 
0.0165469 -0.0360638 0.0499193 0.0179889 -0.0354279 0.0486628 0.0195599 -0.034508 0.0469957 
0.0214178 -0.0331115 0.0445104 0.0368992 -0.00751906 0.0179166 0.0356472 -0.00713566 0.0189874 
0.0343953 -0.00675227 0.0200583 0.0318018 -0.00646959 0.0208342 0.0291803 -0.00618901 0.0216039 
0.026442 -0.00605134 0.0220032 0.0236987 -0.00591974 0.0223867 0.0210954 -0.00596913 0.022394 
0.0185012 -0.00603033 0.0223768 0.0163451 -0.00631469 0.0221096 0.0142279 -0.00661888 0.0218202 
0.0127723 -0.00720438 0.0216048 0.011392 -0.00782184 0.0213978 0.0106602 -0.00878213 0.021721 
0.0100189 -0.00979024 0.0221181 0.00976443 -0.0111528 0.0233136 0.00957447 -0.0125744 0.0246421 
0.00949615 -0.0142774 0.0266269 0.0094396 -0.0160354 0.0287398 0.00941426 -0.0179498 0.0311746 
0.00939592 -0.0198994 0.0336817 0.00948582 -0.0218675 0.0362263 0.00960346 -0.0238402 0.0387805 
0.00992767 -0.0256821 0.0411441 0.0103117 -0.0274861 0.0434525 0.0109589 -0.0289968 0.045342 
0.0116915 -0.0304124 0.0470955 0.0127072 -0.0313852 0.0482027 0.0138252 -0.0321982 0.0490764 
0.0152249 -0.0324835 0.0491322 0.0167372 -0.0325577 0.0488608 0.0185098 -0.0321279 0.0477187 
0.0203971 -0.0314757 0.0461925 0.0224953 -0.0304541 0.0438873 0.0372954 -0.00866069 0.0201576 
0.0360191 -0.00825161 0.0212969 0.0347428 -0.00784254 0.0224363 0.0320903 -0.00750715 0.0232494 
0.0294093 -0.0071733 0.0240558 0.0265908 -0.00694921 0.024458 0.0237666 -0.00672979 0.024843 
0.0210608 -0.00665454 0.0248225 0.0183628 -0.00658869 0.0247755 0.0160739 -0.00671297 0.0244548 
0.0138214 -0.00685415 0.0241099 0.0121938 -0.00725866 0.0238051 0.0106373 -0.00769308 0.023505 
0.00970408 -0.00847281 0.0236683 0.00885789 -0.00930072 0.0238963 0.00841179 -0.0104919 0.0248425 
0.00803238 -0.0117436 0.0259083 0.00781653 -0.0132686 0.0275914 0.00763259 -0.0148468 0.0293949 
0.00754803 -0.0165509 0.031532 0.00748583 -0.0182834 0.0337441 0.00760304 -0.0199997 0.0360293 
0.00776626 -0.0217119 0.0383332 0.00821033 -0.0232817 0.0404903 0.00873571 -0.0248103 0.0426049 
0.00959721 -0.0260792 0.0443518 0.0105677 -0.0272639 0.0459794 0.0118765 -0.028093 0.0470213 
0.0133073 -0.0287938 0.0478515 0.0150369 -0.0290936 0.0479295 0.0168859 -0.0292332 0.0477064 
0.0189639 -0.0290019 0.0466718 0.0211429 -0.0286071 0.0452792 0.0234619 -0.0279452 0.043147 
0.037723 -0.010108 0.0221446 0.036434 -0.00969755 0.0233491 0.035145 -0.00928707 0.0245537 
0.0324592 -0.00892491 0.0254071 0.0297444 -0.00856376 0.0262532 0.0268756 -0.00828269 0.0266697 
0.0240004 -0.00800503 0.0270679 0.0212221 -0.00784047 0.0270404 0.0184501 -0.00768329 0.0269851 
0.0160521 -0.0076882 0.0266385 0.0136873 -0.00770752 0.0262661 0.0118999 -0.00796787 0.0258966 
0.0101782 -0.00825562 0.0255275 0.0090472 -0.0088708 0.0255401 0.00799863 -0.00953166 0.0256059 
0.00736581 -0.0105392 0.0262899 0.00680228 -0.0116045 0.0270769 0.00646381 -0.0129256 0.028428 
0.00616927 -0.0142967 0.0298893 0.00604761 -0.0157768 0.0316931 0.00596485 -0.0172813 0.033574 
0.00612376 -0.0187599 0.0355685 0.00634464 -0.0202319 0.0375922 0.00689554 -0.0215709 0.0395182 
0.00754196 -0.0228714 0.0414159 0.00856241 -0.0239525 0.0429989 0.00970416 -0.0249623 0.04448 
0.0112065 -0.0256902 0.0454332 0.0128392 -0.0263163 0.0461958 0.0147705 -0.0266384 0.0462665 
0.0168213 -0.0268389 0.0460603 0.0190758 -0.0267678 0.0450978 0.0214203 -0.0265769 0.0438016 
0.0238602 -0.0261978 0.0418058 0.0381461 -0.0116096 0.02407 0.0368461 -0.0112027 0.0253374 
0.0355461 -0.0107958 0.0266049 0.0328307 -0.0104124 0.0274971 0.0300857 -0.0100295 0.0283815 
0.0271707 -0.00969767 0.0288116 0.0242484 -0.00936801 0.0292222 0.0214016 -0.0091212 0.0291873 
0.0185597 -0.00887979 0.0291233 0.0160565 -0.00877279 0.0287498 0.0135833 -0.00867773 0.0283488 
0.0116407 -0.00880041 0.0279131 0.00975842 -0.00894783 0.0274735 0.00843477 -0.00940201 0.0273349 
0.00718908 -0.009899 0.0272383 0.00637441 -0.0107228 0.0276624 0.00563158 -0.011601 0.0281733 
0.00517385 -0.0127163 0.029196 0.00477174 -0.013878 0.0303184 0.00461415 -0.0151328 0.0317911 
0.00451158 -0.0164086 0.0333425 0.00471073 -0.017651 0.0350464 0.00498724 -0.018885 0.0367894 
0.00563994 -0.0199975 0.0384828 0.00640153 -0.0210749 0.040162 0.00757152 -0.0219734 0.0415789 
0.00887396 -0.0228138 0.0429107 0.0105564 -0.0234441 0.0437722 0.0123761 -0.0239984 0.0444639 
0.014493 -0.0243419 0.0445237 0.0167288 -0.024601 0.0443308 0.019144 -0.0246838 0.0434367 
0.0216383 -0.0246887 0.0422332 0.0241862 -0.0245812 0.0403708 0.0385418 -0.0134362 0.0256257 
0.0372411 -0.0130631 0.0269423 0.0359404 -0.01269 0.0282588 0.0332172 -0.0123185 0.0291811 
0.0304644 -0.0119471 0.0300951 0.0275272 -0.0116017 0.0305344 0.0245822 -0.0112575 0.0309536 
0.0216907 -0.0109707 0.0309085 0.0188028 -0.0106877 0.0308332 0.0162182 -0.0105136 0.0304268 
0.0136607 -0.0103491 0.029991 0.0115898 -0.0103729 0.0294796 0.00957431 -0.0104181 0.0289596 
0.00808903 -0.0107326 0.0286679 0.00667774 -0.0110847 0.0284081 0.0057105 -0.0117242 0.0285863 
0.00481727 -0.0124116 0.0288375 0.00426033 -0.013309 0.0295516 0.003769 -0.0142474 0.030356 
0.00358252 -0.01527 0.0315096 0.00346464 -0.0163115 0.0327418 0.0036952 -0.0173274 0.0341557 
0.00401511 -0.0183368 0.0356162 0.00473951 -0.0192489 0.0370688 0.005581 -0.0201329 0.0385191 
0.00684417 -0.0208805 0.0397556 0.00824409 -0.0215839 0.0409226 0.010025 -0.0221375 0.0416738 
0.0119435 -0.0226369 0.0422748 0.014149 -0.0229971 0.0423023 0.0164692 -0.0233016 0.0421004 
0.0189493 -0.0235004 0.0412529 0.0214998 -0.0236525 0.0401205 0.0240787 -0.0237498 0.0383731 
0.0389247 -0.0153019 0.0271153 0.0376246 -0.0149666 0.0284777 0.0363244 -0.0146312 0.0298401 
0.0335962 -0.0142759 0.0307898 0.0308384 -0.0139202 0.0317308 0.027882 -0.0135659 0.0321775 
0.0249172 -0.0132117 0.0326031 0.0219844 -0.0128896 0.0325461 0.0190537 -0.0125695 0.0324577 
0.0163918 -0.0123326 0.0320166 0.0137539 -0.012103 0.0315441 0.01156 -0.0120315 0.0309557 
0.00941653 -0.011978 0.0303541 0.00777584 -0.0121555 0.0299103 0.0062053 -0.0123653 0.0294886 
0.00509108 -0.0128225 0.0294253 0.00405293 -0.013321 0.0294217 0.00339992 -0.0140021 0.0298336 
0.00282207 -0.0147188 0.0303264 0.0026068 -0.0155112 0.0311667 0.00247312 -0.0163206 0.0320852 
0.00273242 -0.0171128 0.0332128 0.00309247 -0.0179006 0.034394 0.00388345 -0.0186157 0.0356076 
0.00479916 -0.0193098 0.0368305 0.00614811 -0.0199098 0.0378867 0.00763758 -0.0204792 0.0388889 
0.00950772 -0.0209577 0.0395289 0.0115153 -0.0214033 0.0400382 0.0137992 -0.0217789 0.040032 
0.0161935 -0.0221263 0.0398196 0.0187285 -0.0224362 0.0390168 0.0213257 -0.0227295 0.0379537 
0.0239275 -0.0230233 0.0363199 0.0392159 -0.0174477 0.028131 0.0379253 -0.0171784 0.0295158 
0.0366348 -0.0169091 0.0309006 0.0339211 -0.0166006 0.0318589 0.0311777 -0.0162914 0.0328084 
0.028224 -0.0159607 0.0332481 0.0252613 -0.0156292 0.0336661 0.0223107 -0.0153049 0.0335847 
0.0193609 -0.014981 0.0334706 0.01665 -0.0147123 0.0329815 0.0139603 -0.0144485 0.032459 
0.0116806 -0.0143076 0.031784 0.00944753 -0.0141807 0.0310917 0.00769598 -0.0142404 0.0305031 
0.00601162 -0.0143262 0.029929 0.00479052 -0.0146153 0.029656 0.00364663 -0.0149382 0.029433 
0.00292015 -0.015415 0.0295877 0.00227512 -0.0159218 0.029816 0.00203178 -0.0164983 0.0303835 
0.00187883 -0.0170904 0.0310274 0.00214764 -0.0176788 0.0318955 0.0025246 -0.0182664 0.032821 
0.00334535 -0.0188092 0.0338081 0.00429457 -0.0193392 0.0348131 0.00567636 -0.0198145 0.0356911 
0.00719844 -0.0202721 0.0365279 0.00909151 -0.0206868 0.0370513 0.0111185 -0.021086 0.0374617 
0.0134077 -0.021467 0.0374114 0.0158017 -0.0218407 0.0371768 0.0183215 -0.0222263 0.0364065 
0.0208969 -0.022617 0.0354 0.0234641 -0.0230487 0.0338684 0.0394905 -0.0196134 0.0290853 
0.0382105 -0.0194124 0.0304891 0.0369305 -0.0192115 0.0318929 0.0342334 -0.0189524 0.0328573 
0.0315067 -0.0186921 0.0338125 0.0285581 -0.0183876 0.0342434 0.0256001 -0.0180812 0.034652 
0.0226347 -0.0177571 0.034545 0.0196689 -0.0174318 0.0344044 0.0169127 -0.0171336 0.0338668 
0.014175 -0.0168377 0.033294 0.0118142 -0.0166293 0.0325332 0.00949615 -0.0164309 0.031751 
0.00763883 -0.0163751 0.0310204 0.0058458 -0.0163392 0.0302971 0.00452216 -0.0164628 0.0298191 
0.00327674 -0.0166131 0.0293821 0.00247915 -0.016889 0.0292857 0.00176895 -0.0171893 0.0292558 
0.00149743 -0.0175535 0.0295564 0.00132462 -0.0179319 0.0299315 0.00160067 -0.0183201 0.0305447 
0.00199181 -0.0187109 0.0312189 0.0028384 -0.0190847 0.0319829 0.00381684 -0.0194536 0.0327729 
0.00522635 -0.0198066 0.0334745 0.00677567 -0.0201544 0.0341475 0.00868583 -0.020506 0.0345552 
0.0107263 -0.0208591 0.0348671 0.0130147 -0.0212443 0.0347727 0.0154023 -0.0216425 0.0345157 
0.0179014 -0.0221001 0.0337772 0.0204496 -0.0225841 0.0328262 0.0229773 -0.023148 0.031396 
0.0396193 -0.0219544 0.0294986 0.0383582 -0.0218419 0.0308919 0.037097 -0.0217295 0.0322852 
0.0344351 -0.0215415 0.0332323 0.031744 -0.0213519 0.0341701 0.0288233 -0.0210958 0.0345761 
0.0258927 -0.0208369 0.0349595 0.0229392 -0.0205342 0.0348174 0.0199842 -0.0202286 0.034641 
0.0172152 -0.0199195 0.034052 0.0144628 -0.0196101 0.0334263 0.0120614 -0.0193517 0.0325866 
0.00969986 -0.019099 0.0317226 0.00778154 -0.0189473 0.030874 0.00592506 -0.0188097 0.0300275 
0.0045371 -0.018793 0.0293879 0.00322724 -0.0187964 0.0287828 0.00237934 -0.0189009 0.0284895 
0.00162158 -0.0190251 0.0282571 0.00132097 -0.0192083 0.0283429 0.00112322 -0.0194047 0.0285003 
0.00138642 -0.0196235 0.0288998 0.0017678 -0.0198481 0.0293615 0.00260561 -0.0200805 0.0299307 
0.00357555 -0.0203153 0.0305312 0.00496777 -0.0205662 0.0310734 0.00649694 -0.0208225 0.0315968 
0.00837287 -0.0211185 0.031896 0.010374 -0.0214288 0.0321142 0.0126087 -0.0218075 0.0319751 
0.0149368 -0.0222134 0.0316931 0.0173656 -0.0227119 0.0309799 0.0198388 -0.0232511 0.0300766 
0.0222859 -0.0238972 0.0287382 0.0397322 -0.0242982 0.0298628 0.0384906 -0.024275 0.031243 
0.037249 -0.0242518 0.0326231 0.0346239 -0.0241358 0.033551 0.0319701 -0.0240179 0.0344695 
0.0290792 -0.0238113 0.0348494 0.0261782 -0.0236009 0.0352065 0.023239 -0.0233206 0.0350292 
0.0202973 -0.0230358 0.034817 0.0175186 -0.0227171 0.0341774 0.0147544 -0.0223954 0.0334998 
0.0123159 -0.0220883 0.0325833 0.00991432 -0.0217829 0.0316396 0.00793844 -0.0215373 0.0306761 
0.00602195 -0.0213 0.0297099 0.0045725 -0.0211457 0.0289132 0.00320089 -0.0210053 0.0281447 
0.00230418 -0.0209417 0.0276594 0.00150014 -0.0208932 0.0272295 0.00117039 -0.0208989 0.0271053 
0.000947349 -0.0209167 0.0270498 0.00119624 -0.0209694 0.0272399 0.00156614 -0.0210309 0.027493 
0.00239272 -0.0211246 0.0278708 0.0033515 -0.0212275 0.0282847 0.00472338 -0.0213782 0.0286699 
0.00622923 -0.0215444 0.0290457 0.00806767 -0.0217852 0.0292378 0.0100262 -0.0220531 0.0293636 
0.012204 -0.0224243 0.0291803 0.0144694 -0.0228368 0.0288735 0.0168249 -0.0233737 0.0281854 
0.0192202 -0.0239655 0.0273291 0.0215844 -0.0246902 0.0260817 0.0396658 -0.0266731 0.0296755 
0.0384515 -0.0267478 0.0310128 0.0372373 -0.0268224 0.03235 0.0346673 -0.0267888 0.0332365 
0.032069 -0.026753 0.0341136 0.0292313 -0.0266075 0.0344552 0.0263835 -0.0264574 0.034774 
0.0234869 -0.026212 0.03456 0.0205871 -0.0259603 0.0343112 0.0178322 -0.0256452 0.0336309 
0.0150902 -0.0253244 0.0329123 0.0126526 -0.0249849 0.0319414 0.0102497 -0.0246433 0.0309419 
0.00825497 -0.0243266 0.0299004 0.00631725 -0.0240135 0.0288531 0.0048379 -0.0237529 0.0279487 
0.00343495 -0.0235011 0.0270682 0.00250641 -0.0233072 0.0264473 0.00167045 -0.0231246 0.025877 
0.00131093 -0.0229919 0.0255974 0.0010586 -0.0228703 0.0253831 0.00127688 -0.0227927 0.0254107 
0.00161582 -0.0227263 0.0255004 0.0024036 -0.0227105 0.0257234 0.0033213 -0.0227093 0.0259851 