# vtk DataFile Version 2.0
vtk output
ASCII
DATASET RECTILINEAR_GRID
DIMENSIONS 34 34 34
X_COORDINATES 34 float
-3.33333 -3.13131 -2.92929 -2.72727 -2.52525 -2.32323 -2.12121 -1.91919 -1.71717 
-1.51515 -1.31313 -1.11111 -0.909091 -0.707071 -0.505051 -0.30303 -0.10101 0.10101 
0.30303 0.50505 0.70707 0.909091 1.11111 1.31313 1.51515 1.71717 1.91919 
2.12121 2.32323 2.52525 2.72727 2.92929 3.13131 3.33333 
Y_COORDINATES 34 float
3.33333 3.53535 3.73737 3.93939 4.14141 4.34343 4.54545 4.74747 4.94949 
5.15152 5.35354 5.55556 5.75758 5.9596 6.16162 6.36364 6.56566 6.76768 
6.9697 7.17172 7.37374 7.57576 7.77778 7.9798 8.18182 8.38384 8.58586 
8.78788 8.9899 9.19192 9.39394 9.59596 9.79798 10 
Z_COORDINATES 34 float
-10 -9.79798 -9.59596 -9.39394 -9.19192 -8.9899 -8.78788 -8.58586 -8.38384 
-8.18182 -7.9798 -7.77778 -7.57576 -7.37374 -7.17172 -6.9697 -6.76768 -6.56566 
-6.36364 -6.16162 -5.9596 -5.75758 -5.55556 -5.35354 -5.15152 -4.9495 -4.74747 
-4.54545 -4.34343 -4.14141 -3.93939 -3.73737 -3.53535 -3.33333 
POINT_DATA 39304
VECTORS grad float
-0.0609734 -0.0680671 0.0893132 -0.057536 -0.0660836 0.0821743 -0.054399 -0.0645986 0.0768023 
-0.0514214 -0.0633784 0.0723689 -0.0487329 -0.0626929 0.069027 -0.0462122 -0.062318 0.0663189 
-0.0439558 -0.0624434 0.0643205 -0.0418669 -0.0628858 0.0627716 -0.0400373 -0.0636897 0.0617123 
-0.0383866 -0.064743 0.0609907 -0.0369709 -0.0659264 0.0606345 -0.0357315 -0.0672075 0.0605524 
-0.0346477 -0.0683535 0.0607763 -0.0336907 -0.0693894 0.0612496 -0.0327632 -0.0700845 0.0620168 
-0.0318619 -0.0704781 0.0630441 -0.0308778 -0.0704563 0.0643757 -0.0298144 -0.0700357 0.0659996 
-0.0286378 -0.0692495 0.0679246 -0.0273434 -0.0680824 0.0701633 -0.0260067 -0.0666545 0.0726506 
-0.024622 -0.0649316 0.0754188 -0.0233253 -0.0630449 0.078322 -0.0221365 -0.060957 0.0813909 
-0.02116 -0.0587755 0.0844409 -0.0204667 -0.0564692 0.0874656 -0.0200561 -0.0541243 0.0903165 
-0.0200556 -0.0517233 0.0929154 -0.0203393 -0.0493378 0.0952195 -0.0210717 -0.0469766 0.097058 
-0.0220295 -0.0446881 0.0985312 -0.0233753 -0.0425246 0.0993749 -0.0248458 -0.040486 0.0998335 
-0.0265508 -0.0386825 0.0995673 -0.0584528 -0.0671293 0.0833941 -0.055531 -0.0643955 0.0770941 
-0.0528778 -0.0624682 0.0723574 -0.0503673 -0.0609692 0.0684513 -0.0481236 -0.0601428 0.0655163 
-0.0460348 -0.0597068 0.0631453 -0.0441615 -0.0598136 0.0614025 -0.0424248 -0.0602642 0.0600575 
-0.0408609 -0.0610858 0.0591442 -0.0394163 -0.0621633 0.0585285 -0.038095 -0.0633965 0.0582395 
-0.0368662 -0.0647463 0.0581956 -0.0356859 -0.0660279 0.0584363 -0.034545 -0.067254 0.0589091 
-0.0333637 -0.068236 0.0596676 -0.0321466 -0.069002 0.0606788 -0.0308274 -0.0694373 0.0619935 
-0.0294103 -0.0695551 0.0635994 -0.0278992 -0.0693416 0.0655084 -0.02629 -0.0687831 0.0677332 
-0.0246721 -0.0679407 0.0702117 -0.0230444 -0.0667775 0.0729771 -0.0215367 -0.0653894 0.0758879 
-0.0201764 -0.0637255 0.0789774 -0.0190563 -0.0618946 0.0820637 -0.0182565 -0.059841 0.0851457 
-0.0177673 -0.0576817 0.0880704 -0.0177285 -0.0553689 0.0907671 -0.0180046 -0.0530206 0.0931791 
-0.0187782 -0.0506162 0.0951415 -0.0198091 -0.048253 0.0967349 -0.0212831 -0.0459607 0.0976928 
-0.0229088 -0.0437811 0.0982443 -0.0248199 -0.0418133 0.098031 -0.0546739 -0.0649315 0.0776898 
-0.0526685 -0.0617095 0.0722879 -0.0507891 -0.0595109 0.0682128 -0.0489767 -0.0578561 0.0648426 
-0.0473318 -0.0569931 0.0623121 -0.0457842 -0.0565899 0.0602692 -0.0443638 -0.0567837 0.0587731 
-0.0430239 -0.0573555 0.0576233 -0.041763 -0.0583256 0.0568503 -0.0405566 -0.0595703 0.0563373 
-0.0393754 -0.0610021 0.0561132 -0.0382131 -0.0625741 0.0561058 -0.0370097 -0.0641281 0.0563575 
-0.0357729 -0.0656676 0.0568205 -0.0344298 -0.067024 0.0575527 -0.0329926 -0.0682185 0.058523 
-0.0314176 -0.0691301 0.0597871 -0.0297102 -0.06977 0.0613332 -0.0278984 -0.0700907 0.0631797 
-0.0259776 -0.0700788 0.0653389 -0.0240535 -0.0697535 0.0677575 -0.0221255 -0.0690742 0.0704693 
-0.0203324 -0.0681105 0.0733422 -0.0187046 -0.066798 0.0764128 -0.01734 -0.0652475 0.0795038 
-0.0163262 -0.0633799 0.0826217 -0.0156552 -0.0613406 0.0856074 -0.0154812 -0.0590523 0.0884011 
-0.0156626 -0.0566779 0.0909272 -0.0164051 -0.0541675 0.0930309 -0.0174487 -0.0516668 0.0947657 
-0.0190106 -0.0491832 0.0958653 -0.0207625 -0.0467998 0.0965363 -0.022872 -0.0446053 0.0964004 
-0.0507367 -0.0619221 0.0721992 -0.0497118 -0.0583693 0.0676718 -0.0486642 -0.0560171 0.0642402 
-0.0476043 -0.0543027 0.0613907 -0.0466006 -0.0534837 0.0592511 -0.0456293 -0.0531846 0.0575236 
-0.0446881 -0.0535322 0.0562623 -0.0437659 -0.0542895 0.0552962 -0.0428261 -0.0554718 0.0546528 
-0.0418743 -0.0569473 0.054232 -0.0408511 -0.0586394 0.0540618 -0.0397746 -0.0604942 0.0540797 
-0.0385697 -0.0623758 0.0543299 -0.0372603 -0.0642794 0.0547693 -0.0357771 -0.0660521 0.0554595 
-0.0341402 -0.0677092 0.0563714 -0.032323 -0.0691214 0.057566 -0.0303327 -0.0702984 0.0590319 
-0.0282174 -0.0711601 0.0607951 -0.025972 -0.0716932 0.0628681 -0.0237188 -0.0718776 0.0652082 
-0.0214568 -0.0716678 0.0678501 -0.0193382 -0.0711097 0.0706723 -0.0173953 -0.0701243 0.0737158 
-0.015737 -0.0688267 0.0768076 -0.014458 -0.067113 0.0799637 -0.0135564 -0.0651598 0.0830167 
-0.0132019 -0.0628592 0.0859202 -0.0132479 -0.0604212 0.0885768 -0.0139261 -0.057766 0.0908435 
-0.0149543 -0.0550892 0.0927437 -0.0165855 -0.0523754 0.0940127 -0.0184502 -0.0497495 0.0948308 
-0.0207546 -0.0472893 0.0948002 -0.0464408 -0.0570731 0.0671927 -0.046542 -0.0535464 0.0634864 
-0.0464571 -0.051307 0.0606574 -0.0462733 -0.0497516 0.0582944 -0.0460063 -0.0491589 0.0565147 
-0.0456912 -0.0491252 0.0550736 -0.045289 -0.0497786 0.0540201 -0.0448317 -0.050867 0.0532121 
-0.0442543 -0.0524062 0.0526736 -0.0435939 -0.0542561 0.052321 -0.0427697 -0.0563488 0.0521802 
-0.0418227 -0.0586236 0.0521982 -0.040665 -0.0609578 0.0524183 -0.0393355 -0.0633404 0.0528031 
-0.0377615 -0.0656244 0.0534156 -0.0359712 -0.0678212 0.0542295 -0.0339429 -0.0697891 0.0553114 
-0.0316863 -0.0715374 0.0566505 -0.0292615 -0.0729557 0.058284 -0.0266615 -0.0740303 0.0602242 
-0.0240275 -0.0747072 0.0624434 -0.0213549 -0.0749345 0.0649781 -0.0188201 -0.0747394 0.0677208 
-0.0164543 -0.074026 0.0707185 -0.0143909 -0.0729188 0.0738026 -0.0127307 -0.0712865 0.0770016 
-0.0114879 -0.0693423 0.0801367 -0.0108501 -0.066946 0.083179 -0.0106684 -0.0643592 0.0860031 
-0.0112067 -0.0614716 0.0884824 -0.0121564 -0.058531 0.0906023 -0.0138146 -0.055499 0.0921032 
-0.0157617 -0.0525427 0.0931312 -0.0182528 -0.0497286 0.0932689 -0.042316 -0.0514333 0.062469 
-0.0435453 -0.0480501 0.0595325 -0.0444353 -0.0460251 0.0572689 -0.045145 -0.0447217 0.0553627 
-0.0456318 -0.0444382 0.0539185 -0.0459891 -0.0447469 0.0527425 -0.0461395 -0.0457761 0.0518775 
-0.0461589 -0.0472618 0.0512093 -0.0459545 -0.0492192 0.0507575 -0.0455958 -0.0515021 0.050455 
-0.0449817 -0.0540503 0.0503241 -0.0441762 -0.0567976 0.0503219 -0.0430777 -0.0596335 0.0504897 
-0.0417407 -0.0625415 0.0507961 -0.0400856 -0.0653794 0.0513051 -0.0381491 -0.0681552 0.0519934 
-0.0359102 -0.0707139 0.0529343 -0.033381 -0.0730641 0.0541175 -0.0306307 -0.0750644 0.0555937 
-0.0276501 -0.0767001 0.0573751 -0.0246 -0.0778819 0.0594519 -0.0214714 -0.0785507 0.0618629 
-0.0184697 -0.0787149 0.0645157 -0.0156237 -0.0782599 0.0674654 -0.013098 -0.0773225 0.0705462 
-0.0109993 -0.0757417 0.0738017 -0.00936198 -0.0737728 0.077038 -0.00839362 -0.071241 0.0802466 
-0.00794267 -0.0684649 0.0832695 -0.00830869 -0.0653028 0.0859989 -0.00915296 -0.0620571 0.0883785 
-0.0108209 -0.0586673 0.0901557 -0.0128377 -0.0553414 0.091439 -0.0155112 -0.0521358 0.0917929 
-0.038619 -0.0438164 0.0584524 -0.0409813 -0.0408703 0.0561574 -0.0428766 -0.0393135 0.0543661 
-0.0445239 -0.0384949 0.0528424 -0.0458064 -0.0387277 0.0516729 -0.0468772 -0.0395711 0.050709 
-0.0476139 -0.0411519 0.0499838 -0.0481392 -0.0431997 0.0494098 -0.0483349 -0.0457293 0.0489992 
-0.0483033 -0.0485911 0.0487013 -0.0479272 -0.0517323 0.048532 -0.0472927 -0.0550831 0.0484589 
-0.0462841 -0.0585433 0.0485189 -0.0449708 -0.0620926 0.0486872 -0.0432589 -0.065591 0.0490282 
-0.0411944 -0.0690442 0.0495221 -0.0387457 -0.0722812 0.050251 -0.035928 -0.0753105 0.0512055 
-0.0328123 -0.077956 0.0524554 -0.029386 -0.0802016 0.0540131 -0.0258321 -0.0819193 0.0558937 
-0.0221339 -0.0830403 0.0581394 -0.0185385 -0.0835546 0.060677 -0.0150693 -0.0833241 0.0635727 
-0.0119381 -0.0825052 0.0666614 -0.00925765 -0.0809015 0.0700072 -0.00709275 -0.0788232 0.0733929 
-0.00567542 -0.0760566 0.0768362 -0.00485138 -0.0729896 0.0801361 -0.00496408 -0.0694479 0.0832097 
-0.00563577 -0.0657941 0.0859491 -0.00727013 -0.0619469 0.0881132 -0.00932463 -0.0581539 0.0897657 
-0.01217 -0.0544626 0.0904553 -0.0352524 -0.035487 0.0547295 -0.0387494 -0.033048 0.0530212 
-0.041657 -0.0320367 0.0516602 -0.0442514 -0.0317837 0.0504837 -0.0463366 -0.0326106 0.0495592 
-0.048126 -0.0340646 0.0487811 -0.0494517 -0.0362651 0.0481714 -0.0504838 -0.0389384 0.0476683 
-0.0510809 -0.0420961 0.0472752 -0.0513779 -0.0455878 0.046958 -0.0512435 -0.0493682 0.0467237 
-0.0507856 -0.0533651 0.0465517 -0.0498738 -0.0574905 0.046472 -0.0485922 -0.0617205 0.0464675 
-0.046829 -0.0659189 0.0466021 -0.0446398 -0.0700895 0.0468596 -0.0419767 -0.074045 0.0473327 
-0.0388586 -0.077794 0.0480129 -0.0353536 -0.0811228 0.0489929 -0.0314457 -0.0840139 0.0502853 
-0.0273406 -0.0862958 0.0519355 -0.0230127 -0.0878891 0.05399 -0.0187577 -0.0887622 0.0563973 
-0.0145924 -0.0887516 0.0592377 -0.0107847 -0.0880359 0.0623439 -0.00745378 -0.0863803 0.0658046 
-0.00470001 -0.0841582 0.069372 -0.00278306 -0.0811146 0.073094 -0.00154366 -0.0777146 0.076719 
-0.0013741 -0.0737518 0.0801908 -0.00185043 -0.0696513 0.083346 -0.00343915 -0.0653138 0.085956 
-0.00552266 -0.0610235 0.0880383 -0.00853756 -0.0568219 0.0891271 -0.0328006 -0.0251846 0.0518201 
-0.0374375 -0.0234469 0.0505464 -0.0413763 -0.0231946 0.0494992 -0.0449442 -0.0237314 0.0485725 
-0.047851 -0.0253676 0.0478111 -0.0503739 -0.0276423 0.0471459 -0.0522959 -0.0306514 0.046584 
-0.0538372 -0.0341257 0.0460876 -0.0548391 -0.0380665 0.0456463 -0.0554689 -0.0423291 0.045243 
-0.0555868 -0.0468765 0.0448708 -0.0553208 -0.0516375 0.0445219 -0.0545248 -0.0565411 0.0442145 
-0.0532971 -0.0615607 0.043941 -0.0514979 -0.0665691 0.0437625 -0.0491931 -0.0715675 0.043668 
-0.0463029 -0.076353 0.043764 -0.0428509 -0.080934 0.044043 -0.0388908 -0.0850518 0.0446323 
-0.0344016 -0.088687 0.0455447 -0.0296145 -0.0916114 0.0468697 -0.0244906 -0.0937322 0.048661 
-0.0193938 -0.0949887 0.0508967 -0.0143302 -0.0951847 0.0536776 -0.00964899 -0.0945304 0.0568283 
-0.00547764 -0.0927426 0.060472 -0.00196526 -0.0902814 0.0643109 0.000591595 -0.0868438 0.0684331 
0.00236332 -0.0829944 0.0725157 0.00289535 -0.078495 0.0765358 0.00267741 -0.0738414 0.0802618 
0.00116784 -0.0689223 0.0834813 -0.000920609 -0.0640515 0.086161 -0.0040987 -0.0592714 0.0878248 
-0.0307268 -0.0142039 0.0491835 -0.0365425 -0.0132153 0.0482969 -0.0415394 -0.0137923 0.0475242 
-0.0461013 -0.0152012 0.046812 -0.0498359 -0.0177268 0.0461831 -0.0530901 -0.0209009 0.0456026 
-0.0555995 -0.0247847 0.045062 -0.0576371 -0.0291179 0.0445468 -0.0590323 -0.0338881 0.0440309 
-0.0599845 -0.0389597 0.0435144 -0.0603499 -0.0443055 0.0429732 -0.0602753 -0.0498571 0.0424136 
-0.0595995 -0.055564 0.0418385 -0.0584338 -0.0613975 0.0412508 -0.0566063 -0.0672434 0.0407063 
-0.0541932 -0.0731002 0.0402 -0.0510749 -0.0787516 0.0398533 -0.0472796 -0.0842057 0.0396599 
-0.0428394 -0.0891554 0.0397875 -0.0377276 -0.0935797 0.0402496 -0.0322007 -0.0971853 0.0411898 
-0.0262046 -0.0998653 0.0426704 -0.0201816 -0.101523 0.0447059 -0.0141256 -0.101927 0.0474224 
-0.00848116 -0.101322 0.0506314 -0.00338558 -0.0993708 0.0544972 0.000956299 -0.0966342 0.0586585 
0.00420533 -0.0927579 0.063248 0.00654883 -0.0884175 0.0678581 0.00746253 -0.0833444 0.0725005 
0.00751479 -0.0781074 0.0768695 0.00608345 -0.0725884 0.0807678 0.00398728 -0.0671245 0.0841134 
0.000639683 -0.0617645 0.0864188 -0.0298185 -0.00113149 0.0473878 -0.0369333 -0.00103931 0.0467419 
-0.0430712 -0.00266276 0.0461222 -0.0486901 -0.00519766 0.0455163 -0.0532715 -0.00885941 0.0449251 
-0.0572503 -0.0131755 0.0443425 -0.0603198 -0.0181375 0.0437416 -0.0628133 -0.0235086 0.0431291 
-0.0645665 -0.0292509 0.0424568 -0.0658091 -0.0352492 0.0417433 -0.0664074 -0.0414903 0.0409378 
-0.0665227 -0.0479135 0.0400633 -0.0659803 -0.0545014 0.0390969 -0.064902 -0.0612233 0.0380556 
-0.06307 -0.0679918 0.036982 -0.0605714 -0.0748016 0.0358799 -0.0572213 -0.0814296 0.0348881 
-0.0530539 -0.0878832 0.0340023 -0.0480565 -0.0937974 0.0334498 -0.0421944 -0.0991496 0.0332448 
-0.0357497 -0.103556 0.0336164 -0.0286464 -0.106893 0.03464 -0.0214373 -0.109008 0.0363875 
-0.0140984 -0.109622 0.0390235 -0.00721415 -0.109027 0.0423337 -0.000936135 -0.106819 0.0465428 
0.00445387 -0.103695 0.0511826 0.00855625 -0.0992422 0.0564467 0.0115931 -0.0942822 0.0617995 
0.0129477 -0.0885211 0.0672922 0.0133066 -0.0826077 0.0725272 0.0119507 -0.0764318 0.0773183 
0.0098382 -0.0703363 0.0815409 0.00630159 -0.0643924 0.0846934 -0.0292983 0.0126287 0.0458451 
-0.037812 0.0117648 0.0454001 -0.0451493 0.00900548 0.0448967 -0.0518617 0.00523919 0.0443621 
-0.0572919 0.000349474 0.0437775 -0.0619776 -0.00519256 0.0431638 -0.0655781 -0.0112933 0.0424758 
-0.0684912 -0.0177479 0.0417408 -0.070571 -0.0244907 0.0408862 -0.0720762 -0.0314321 0.0399491 
-0.0728909 -0.0385757 0.0388478 -0.0731879 -0.0458709 0.0376232 -0.0727812 -0.0533377 0.0362208 
-0.071801 -0.0609443 0.0346733 -0.0699793 -0.0686362 0.0330042 -0.0674131 -0.0764035 0.0312275 
-0.0638417 -0.0840221 0.0294977 -0.0593052 -0.091498 0.0278128 -0.0537329 -0.0984072 0.0264685 
-0.0470816 -0.104726 0.0254792 -0.0396558 -0.10997 0.0251795 -0.0313542 -0.113998 0.0256595 
-0.0228555 -0.11659 0.0270656 -0.0141147 -0.117418 0.0296081 -0.00587981 -0.116822 0.0330404 
0.00168063 -0.114325 0.037659 0.00819781 -0.110779 0.0428599 0.0132023 -0.10571 0.0489051 
0.0169626 -0.100098 0.0551055 0.0187585 -0.0936273 0.0615506 0.019416 -0.0870262 0.0677444 
0.018113 -0.0801998 0.073505 0.0159621 -0.0734867 0.0786743 0.0122149 -0.066987 0.0827301 
-0.0301182 0.028765 0.045176 -0.0403765 0.0267389 0.0447945 -0.0491152 0.0225346 0.0442808 
-0.0570466 0.017173 0.043697 -0.0633328 0.0107381 0.0430112 -0.0686639 0.00367985 0.0422662 
-0.0726946 -0.00376871 0.041399 -0.0759017 -0.0114645 0.0404544 -0.0782002 -0.0193057 0.0393276 
-0.0798719 -0.0272471 0.0380751 -0.0808459 -0.035318 0.0365692 -0.0812965 -0.043486 0.0348732 
-0.0810331 -0.0518249 0.03288 -0.0801881 -0.0603031 0.0306445 -0.0784273 -0.0689207 0.0281503 
-0.0758566 -0.0776616 0.0254271 -0.0720998 -0.0863189 0.0226382 -0.0672044 -0.0948958 0.0197861 
-0.0609966 -0.102906 0.0172639 -0.0534216 -0.110326 0.0150854 -0.0447954 -0.116533 0.0137594 
-0.034981 -0.12137 0.0133971 -0.0248347 -0.124508 0.0142771 -0.0142812 -0.12556 0.0166816 
-0.00431284 -0.124922 0.0203081 0.00487539 -0.12203 0.0255642 0.0127928 -0.117942 0.0316115 
0.0188677 -0.11212 0.0388063 0.0234551 -0.105743 0.0462164 0.025694 -0.0984897 0.0539666 
0.0266227 -0.0911624 0.0614396 0.0252949 -0.0837074 0.0684353 0.0230289 -0.0764249 0.0747918 
0.0189969 -0.0694671 0.0799452 -0.0313535 0.0454794 0.0447707 -0.0435393 0.0421955 0.044412 
-0.0537684 0.0364303 0.0438472 -0.062958 0.0293469 0.0431728 -0.0700793 0.021279 0.0423509 
-0.0759995 0.0126394 0.0414434 -0.0803945 0.00381056 0.0403711 -0.0838234 -0.00513807 0.0391945 
-0.0862814 -0.0140719 0.0377739 -0.0880698 -0.0229956 0.036185 -0.0891708 -0.031966 0.0342487 
-0.0897562 -0.0409715 0.0320519 -0.0896338 -0.0501418 0.0294265 -0.0889347 -0.0594464 0.0264519 
-0.0872561 -0.068945 0.0230605 -0.0847111 -0.0786153 0.0193002 -0.0807956 -0.0882753 0.0153347 
-0.0755646 -0.0979253 0.011172 -0.0687212 -0.107021 0.00731014 -0.0601982 -0.115539 0.00376166 
-0.0503138 -0.122715 0.00124413 -0.0388903 -0.128371 -0.000107982 -0.0269818 -0.132061 0.00015385 
-0.014478 -0.133337 0.00239643 -0.0026509 -0.132651 0.00625204 0.00827374 -0.129346 0.0122584 
0.0176699 -0.124704 0.0192873 0.0248499 -0.118121 0.0277991 0.0302757 -0.110983 0.0365751 
0.0329316 -0.102968 0.0457683 0.0340982 -0.094946 0.0546375 0.0326998 -0.0869102 0.0629487 
0.0302766 -0.0791107 0.070558 0.0259244 -0.0717561 0.0768459 -0.0342093 0.0644487 0.0453936 
-0.0490357 0.0595336 0.0448999 -0.0611025 0.0517558 0.044124 -0.0717033 0.0424573 0.0431983 
-0.0795773 0.0324142 0.0421044 -0.085868 0.0219387 0.0409127 -0.0903698 0.0116031 0.0395344 
-0.0937385 0.00135601 0.038038 -0.0961257 -0.00864798 0.0362392 -0.0978361 -0.0184843 0.0342318 
-0.0989388 -0.028246 0.0317645 -0.0995857 -0.0379516 0.0289523 -0.0995946 -0.0477944 0.0255334 
-0.0990836 -0.057749 0.0216202 -0.0975697 -0.0679544 0.0170507 -0.0951686 -0.0783816 0.0119004 
-0.0911987 -0.088904 0.00629982 -0.0857229 -0.0995176 0.000266897 -0.0782438 -0.109639 -0.00556549 
-0.068678 -0.119246 -0.011189 -0.057309 -0.127405 -0.0155423 -0.0439016 -0.133927 -0.0184597 
-0.0297833 -0.138193 -0.0191748 -0.0147925 -0.139691 -0.0171872 -0.000618574 -0.138926 -0.0129671 
0.0124661 -0.135144 -0.00577023 0.0236471 -0.129897 0.00276757 0.0320677 -0.122525 0.0132498 
0.0383755 -0.114641 0.0240002 0.0413475 -0.10595 0.0351743 0.0426224 -0.0973543 0.0458954 
0.0409747 -0.088924 0.0558368 0.0382298 -0.0808122 0.0649542 0.0334195 -0.0732998 0.0725209 
-0.0375314 0.0832595 0.0463371 -0.0552697 0.0766424 0.0456487 -0.0692699 0.0668067 0.0446023 
-0.081284 0.0552611 0.0433656 -0.089837 0.0432588 0.0419559 -0.0963804 0.0309913 0.0404457 
-0.100879 0.0192026 0.0387384 -0.104083 0.00771701 0.0369064 -0.106319 -0.0032971 0.0347175 
-0.107886 -0.0139861 0.0322826 -0.108945 -0.0244726 0.0292726 -0.109622 -0.0348074 0.0258313 
-0.109748 -0.0452407 0.0215949 -0.109426 -0.0557544 0.0167107 -0.108093 -0.0665654 0.0109077 
-0.105866 -0.0776392 0.00429183 -0.101877 -0.0889104 -0.00305754 -0.0961969 -0.100371 -0.0111111 
-0.0881044 -0.11141 -0.0191024 -0.0774995 -0.122009 -0.027029 -0.0646137 -0.131073 -0.0334386 
-0.0491495 -0.138402 -0.0381334 -0.0327262 -0.143207 -0.0399581 -0.0151259 -0.144915 -0.0382607 
0.00150268 -0.14408 -0.0336239 0.0168353 -0.139855 -0.025068 0.0298553 -0.134055 -0.0148308 
0.039522 -0.125971 -0.00215563 0.0466962 -0.117429 0.0107645 0.0499349 -0.108164 0.0240715 
0.0512671 -0.0991 0.0367648 0.049316 -0.0903805 0.0484014 0.0462026 -0.0820573 0.059073 
0.0409014 -0.0744798 0.0679283 -0.0429262 0.101366 0.0487053 -0.0647822 0.0927323 0.0475576 
-0.0811406 0.0806369 0.0459756 -0.0945784 0.0667027 0.0441628 -0.103483 0.0528124 0.0422431 
-0.109755 0.0389476 0.0402614 -0.113763 0.0259443 0.0381231 -0.116338 0.0134866 0.0358857 
-0.118061 0.00172916 0.033254 -0.119197 -0.00954542 0.0303505 -0.120008 -0.0204622 0.0267458 
-0.120576 -0.0311105 0.0226151 -0.120759 -0.0417702 0.0174547 -0.120629 -0.0524391 0.0114552 
-0.11955 -0.0634058 0.00417275 -0.117633 -0.0746359 -0.0042448 -0.113781 -0.0861513 -0.0138485 
-0.108074 -0.0979404 -0.024591 -0.0994675 -0.109419 -0.0355788 -0.08784 -0.120573 -0.0468222 
-0.0732942 -0.130191 -0.0562684 -0.0554494 -0.138073 -0.063683 -0.0362979 -0.143254 -0.0672071 
-0.0155428 -0.14512 -0.0659563 0.00401924 -0.14425 -0.0606713 0.0219905 -0.139732 -0.0500074 
0.0370906 -0.133608 -0.0372236 0.0480275 -0.125157 -0.0213662 0.0559982 -0.116347 -0.00540855 
0.0592851 -0.10697 0.0107072 0.060448 -0.0979006 0.0259068 0.0579528 -0.0893603 0.0395285 
0.0542628 -0.0812742 0.051959 0.0483241 -0.0740431 0.062147 -0.0486824 0.11722 0.051423 
-0.0749177 0.10685 0.0497206 -0.0936791 0.0928414 0.0475204 -0.10847 0.0768992 0.0450557 
-0.11762 0.0614361 0.0425817 -0.123494 0.0462512 0.0401022 -0.126918 0.0322286 0.0375223 
-0.128792 0.018942 0.0348789 -0.129944 0.00655104 0.0318094 -0.130598 -0.00522233 0.0284461 
-0.131116 -0.0164806 0.0242569 -0.131533 -0.0273526 0.0194483 -0.131739 -0.0381323 0.0133734 
-0.131775 -0.0488366 0.00626661 -0.130939 -0.0598166 -0.00249804 -0.129331 -0.0710404 -0.0127293 
-0.125633 -0.082615 -0.0246276 -0.119929 -0.0945266 -0.0381263 -0.110839 -0.106232 -0.0522214 
-0.0982228 -0.117722 -0.0669376 -0.0820346 -0.127702 -0.0795896 -0.0618091 -0.135975 -0.0899079 
-0.0399163 -0.141429 -0.0952473 -0.0159775 -0.143426 -0.0944762 0.00653797 -0.142554 -0.0884967 
0.0271555 -0.137859 -0.0755725 0.0443262 -0.13156 -0.0600855 0.056499 -0.122936 -0.0408826 
0.0652274 -0.114051 -0.0217596 0.0685171 -0.104756 -0.00276276 0.069472 -0.0958592 0.0149892 
0.066406 -0.0876495 0.0305971 0.0621208 -0.0799363 0.0447766 0.055541 -0.0731578 0.0562671 
-0.0562902 0.121531 0.0559325 -0.0882462 0.110863 0.0531859 -0.10964 0.0967135 0.0499442 
-0.125423 0.0807147 0.0464393 -0.134275 0.0652945 0.0431833 -0.139103 0.0502103 0.0400719 
-0.141466 0.0361686 0.0369963 -0.142267 0.0227871 0.0339434 -0.142546 0.0103256 0.0304613 
-0.142463 -0.00150158 0.0266832 -0.142455 -0.0126472 0.0219625 -0.142503 -0.0232818 0.0165349 
-0.142561 -0.0336362 0.00959412 -0.142627 -0.0437624 0.00142046 -0.141973 -0.0540253 -0.00884014 
-0.140683 -0.0644093 -0.0209469 -0.13722 -0.0750962 -0.0353461 -0.13167 -0.0860738 -0.0519462 
-0.122258 -0.0969156 -0.0697164 -0.108822 -0.107616 -0.0887056 -0.0910823 -0.116972 -0.10543 
-0.0684758 -0.124808 -0.119594 -0.0437748 -0.130016 -0.127343 -0.0165031 -0.131999 -0.127222 
0.00906796 -0.131298 -0.12031 0.0323712 -0.12702 -0.104345 0.0515639 -0.121304 -0.085352 
0.0647963 -0.113502 -0.0619673 0.074084 -0.105537 -0.0390231 0.0771431 -0.0973139 -0.0167745 
0.0776922 -0.0895021 0.00376615 0.0739184 -0.0823993 0.0213655 0.0689423 -0.0757548 0.0372435 
0.0617031 -0.0699732 0.0498815 -0.0634715 0.121532 0.0604452 -0.101077 0.111415 0.056605 
-0.125082 0.0979699 0.0522967 -0.141861 0.0827562 0.0477396 -0.150491 0.0679484 0.0437081 
-0.154389 0.0533762 0.0399819 -0.155787 0.0395598 0.0364327 -0.155602 0.0262219 0.0329958 
-0.155039 0.0137898 0.0291283 -0.154217 0.00198231 0.0249639 -0.15365 -0.00897069 0.0197452 
-0.153275 -0.0192828 0.0137358 -0.153126 -0.0291115 0.00597716 -0.15316 -0.0385463 -0.00320675 
-0.152632 -0.0479567 -0.0148898 -0.151607 -0.0573456 -0.0287837 -0.148343 -0.0669609 -0.0455776 
-0.142929 -0.0767935 -0.0651555 -0.133205 -0.086542 -0.0864739 -0.118993 -0.096203 -0.109605 
-0.0997755 -0.104707 -0.130294 -0.0748991 -0.111905 -0.148221 -0.047517 -0.116738 -0.158332 
-0.0170598 -0.118672 -0.158853 0.0114284 -0.118186 -0.151035 0.0372911 -0.114475 -0.132099 
0.0584051 -0.109524 -0.109693 0.0726336 -0.102772 -0.0822576 0.0824415 -0.095942 -0.0556262 
0.0852694 -0.0889886 -0.0302649 0.0854247 -0.0824365 -0.00706357 0.0809773 -0.0765755 0.0124177 
0.0753473 -0.0711163 0.0298962 0.0674915 -0.0664138 0.0436048 -0.0680943 0.095681 0.0649765 
-0.110922 0.0912071 0.0597466 -0.137408 0.0835314 0.0542216 -0.155213 0.0741547 0.0485397 
-0.164072 0.0633761 0.0437716 -0.167736 0.0517835 0.0395342 -0.168754 0.0396579 0.0356443 
-0.168094 0.0271948 0.0319746 -0.166886 0.0153921 0.0278851 -0.165299 0.00404503 0.023506 
-0.163981 -0.00623511 0.0179905 -0.162866 -0.015715 0.0116226 -0.162157 -0.0244148 0.00333374 
-0.161781 -0.032479 -0.00652044 -0.161036 -0.0402236 -0.019185 -0.159964 -0.0476857 -0.0343357 
-0.156689 -0.0551269 -0.0528866 -0.151298 -0.0625479 -0.0747019 -0.141329 -0.069823 -0.098806 
-0.126592 -0.076946 -0.125294 -0.106342 -0.0832345 -0.149299 -0.0798609 -0.0885798 -0.170495 
-0.0505616 -0.0922758 -0.182678 -0.0178038 -0.0939474 -0.183799 0.0127713 -0.0939412 -0.175228 
0.0404359 -0.0916977 -0.153736 0.0628676 -0.0885985 -0.128484 0.0777116 -0.0842585 -0.0977823 
0.0878049 -0.0798582 -0.0682674 0.090397 -0.0753628 -0.040627 0.0902309 -0.0711194 -0.0155336 
0.0853145 -0.0673099 0.00517316 0.0792533 -0.0637358 0.0236631 0.0710371 -0.0606051 0.0379801 
-0.0710874 0.0674303 0.0687906 -0.118572 0.0690611 0.0623192 -0.147553 0.0676024 0.0557109 
-0.166704 0.0645025 0.0490299 -0.176232 0.0580109 0.0436173 -0.180172 0.0495499 0.0389411 
-0.181149 0.039198 0.0347688 -0.18025 0.0276485 0.0309157 -0.178497 0.0165288 0.0266483 
-0.176155 0.00570554 0.0220952 -0.174052 -0.00382909 0.0163285 -0.17213 -0.0123972 0.00965147 
-0.170789 -0.0198897 0.000899913 -0.169922 -0.0265055 -0.00954201 -0.168878 -0.0325058 -0.0230677 
-0.167677 -0.0379613 -0.0393214 -0.16432 -0.0431416 -0.0594128 -0.158894 -0.0480576 -0.0831884 
-0.148666 -0.0527589 -0.109732 -0.133436 -0.0572367 -0.139158 -0.112258 -0.0612107 -0.166065 
-0.0843551 -0.0646152 -0.190126 -0.0533654 -0.0671155 -0.204129 -0.0185871 -0.0685064 -0.20579 
0.013821 -0.0689935 -0.196582 0.0430684 -0.0682756 -0.172883 0.0666608 -0.067099 -0.145173 
0.0820533 -0.0652572 -0.111648 0.0924083 -0.0633669 -0.079645 0.0948095 -0.0614001 -0.0500444 
0.0943794 -0.059526 -0.0233282 0.0890733 -0.0578117 -0.00157956 0.0826571 -0.0561592 0.0177673 
0.0741515 -0.0546235 0.0325931 -0.0624011 0.0219814 0.0674651 -0.110483 0.0330268 0.0608131 
-0.142059 0.0409914 0.0540782 -0.164866 0.0473194 0.0472991 -0.178214 0.0469624 0.0419016 
-0.18607 0.0427238 0.0373065 -0.189451 0.0347392 0.0332694 -0.19 0.0243821 0.0295859 
-0.188427 0.0143283 0.0254572 -0.18539 0.00448351 0.0210216 -0.182259 -0.00378494 0.0153305 
-0.179058 -0.0108711 0.00869772 -0.176556 -0.0165936 -3.19204e-05 -0.174626 -0.021205 -0.0104701 
-0.172698 -0.0248965 -0.0239947 -0.170773 -0.0277743 -0.0402496 -0.166829 -0.0300722 -0.0603288 
-0.160946 -0.0318134 -0.0840793 -0.150358 -0.0332228 -0.110578 -0.134869 -0.0342866 -0.13994 
-0.113505 -0.0352387 -0.166791 -0.0854975 -0.0360645 -0.190805 -0.054444 -0.0369561 -0.204833 
-0.0196518 -0.0379284 -0.206605 0.0127695 -0.0390095 -0.197587 0.0420294 -0.0402356 -0.174184 
0.0656572 -0.0414825 -0.146795 0.0811185 -0.0427596 -0.113626 0.0915659 -0.0439554 -0.0819669 
0.0940966 -0.045023 -0.0526913 0.093814 -0.0459531 -0.0262815 0.0886863 -0.0466464 -0.00480729 
0.0824628 -0.0471773 0.0142888 0.0741765 -0.0474026 0.0289084 -0.0524685 -0.0224867 0.0656022 
-0.10067 -0.00262899 0.058866 -0.134845 0.0142415 0.052093 -0.161568 0.029525 0.0453003 
-0.179096 0.0350531 0.0399898 -0.191285 0.0349167 0.0355398 -0.197316 0.0293177 0.0316925 
-0.199446 0.0202591 0.028227 -0.198087 0.0113994 0.0242774 -0.19432 0.00267695 0.019994 
-0.190116 -0.00421058 0.014416 -0.185585 -0.00972192 0.007867 -0.181876 -0.0136125 -0.000786147 
-0.178837 -0.0161825 -0.0111538 -0.175978 -0.0175528 -0.0245797 -0.173279 -0.0178618 -0.040711 
-0.168704 -0.0173067 -0.060603 -0.162328 -0.0159221 -0.0841051 -0.151378 -0.0141024 -0.110281 
-0.135664 -0.0118295 -0.139243 -0.114202 -0.00983249 -0.165709 -0.0862432 -0.0081474 -0.189355 
-0.0553125 -0.00746968 -0.203208 -0.0207346 -0.00802829 -0.205041 0.0114931 -0.00967697 -0.196304 
0.0405872 -0.0127791 -0.173473 0.0641222 -0.0163706 -0.146711 0.0795968 -0.0206717 -0.114249 
0.0901162 -0.0248646 -0.083247 0.0928117 -0.0288869 -0.0545498 0.0927225 -0.0325509 -0.0286601 
0.0878372 -0.0355978 -0.00760537 0.0818679 -0.038265 0.0111185 0.073858 -0.0402175 0.0254548 
-0.0315695 -0.0583245 0.0590098 -0.075678 -0.0349536 0.0530372 -0.112493 -0.0137306 0.0470061 
-0.145433 0.00635132 0.0409439 -0.170308 0.0155684 0.0363509 -0.190499 0.0184767 0.032611 
-0.201329 0.0154244 0.0294337 -0.206228 0.00859709 0.0266128 -0.205375 0.00206135 0.0231971 
-0.200555 -0.00427328 0.0193712 -0.19489 -0.00877037 0.014236 -0.188592 -0.0118893 0.00811891 
-0.18326 -0.0134025 2.25441e-05 -0.178714 -0.0136074 -0.00968655 -0.174503 -0.0125464 -0.0221555 
-0.170586 -0.0103657 -0.037066 -0.165001 -0.00721613 -0.05523 -0.157812 -0.00313656 -0.0765173 
-0.146482 0.00135938 -0.0999231 -0.130839 0.00628904 -0.125535 -0.110068 0.0105945 -0.14872 
-0.0834991 0.0141945 -0.16916 -0.0543322 0.0160941 -0.181083 -0.0219763 0.0159069 -0.182553 
0.00823795 0.0139229 -0.174891 0.0355965 0.0095429 -0.155051 0.0579106 0.00430145 -0.13161 
0.0729102 -0.00218913 -0.102947 0.0833232 -0.00859608 -0.0753594 0.0864942 -0.014871 -0.0494708 
0.0870013 -0.02065 -0.0259811 0.0829204 -0.0255751 -0.00662259 0.077747 -0.029965 0.0106602 
0.0705171 -0.0333475 0.0240357 -0.0109213 -0.0930677 0.0524869 -0.0508556 -0.066964 0.0472493 
-0.0901712 -0.0420983 0.0419413 -0.129158 -0.0178903 0.0365961 -0.161238 -0.0052453 0.0327206 
-0.189308 0.000685664 0.0296985 -0.204854 0.000337938 0.0271995 -0.212469 -0.00398632 0.0250318 
-0.21211 -0.00797618 0.0221583 -0.206252 -0.0117354 0.0187981 -0.199157 -0.0137207 0.0141184 
-0.191133 -0.0143756 0.00844907 -0.184212 -0.01348 0.000932221 -0.178188 -0.0113211 -0.00808996 
-0.172644 -0.00785796 -0.0195647 -0.167524 -0.00324103 -0.0332091 -0.160942 0.00242577 -0.0495919 
-0.152957 0.00910047 -0.0686038 -0.141273 0.0161585 -0.0891793 -0.125737 0.0236159 -0.111384 
-0.105706 0.0301121 -0.13124 -0.0805922 0.0355216 -0.148443 -0.0532598 0.0385797 -0.158418 
-0.0232041 0.0387519 -0.159521 0.00492357 0.0364653 -0.15294 0.0304802 0.0309002 -0.136113 
0.0515197 0.0241197 -0.116026 0.0660092 0.0155767 -0.0912132 0.0762931 0.00708666 -0.0670958 
0.0799368 -0.00131965 -0.0440763 0.0810443 -0.00910582 -0.0230422 0.0777838 -0.015824 -0.00542753 
0.0734241 -0.0218622 0.0103723 0.0669951 -0.0266207 0.022756 0.0069055 -0.115496 0.0467467 
-0.0279458 -0.0954378 0.0419221 -0.0681907 -0.0749149 0.0371262 -0.111301 -0.0541449 0.0323455 
-0.148998 -0.0410078 0.0291869 -0.18355 -0.0323029 0.0269702 -0.202899 -0.0281706 0.0252419 
-0.212618 -0.0269345 0.0238228 -0.212612 -0.0258819 0.0215863 -0.205898 -0.0249559 0.0187861 
-0.197719 -0.0230643 0.0147036 -0.188439 -0.0204486 0.00965954 -0.180313 -0.0167909 0.00297786 
-0.173129 -0.0122841 -0.00503816 -0.166481 -0.00674608 -0.0150988 -0.160307 -0.000295863 -0.0269682 
-0.152891 0.00702013 -0.0409723 -0.144282 0.0151673 -0.0570257 -0.132535 0.0235038 -0.0740988 
-0.11752 0.0320375 -0.0922342 -0.0987888 0.0393985 -0.108247 -0.0758561 0.0454336 -0.121861 
-0.0511526 0.0489367 -0.129674 -0.0242757 0.0493322 -0.130368 0.000943291 0.0471125 -0.124947 
0.0239515 0.0414057 -0.111371 0.0431129 0.0343329 -0.0950167 0.0566964 0.0252792 -0.0746336 