# vtk DataFile Version 2.0
vtk output
ASCII
DATASET RECTILINEAR_GRID
DIMENSIONS 34 34 34
X_COORDINATES 34 float
-3.33333 -3.13131 -2.92929 -2.72727 -2.52525 -2.32323 -2.12121 -1.91919 -1.71717 
-1.51515 -1.31313 -1.11111 -0.909091 -0.707071 -0.505051 -0.30303 -0.10101 0.10101 
0.30303 0.50505 0.70707 0.909091 1.11111 1.31313 1.51515 1.71717 1.91919 
2.12121 2.32323 2.52525 2.72727 2.92929 3.13131 3.33333 
Y_COORDINATES 34 float
-3.33333 -3.13131 -2.92929 -2.72727 -2.52525 -2.32323 -2.12121 -1.91919 -1.71717 
-1.51515 -1.31313 -1.11111 -0.909091 -0.707071 -0.505051 -0.30303 -0.10101 0.10101 
0.30303 0.50505 0.70707 0.909091 1.11111 1.31313 1.51515 1.71717 1.91919 
2.12121 2.32323 2.52525 2.72727 2.92929 3.13131 3.33333 
Z_COORDINATES 34 float
-3.33333 -3.13131 -2.92929 -2.72727 -2.52525 -2.32323 -2.12121 -1.91919 -1.71717 
-1.51515 -1.31313 -1.11111 -0.909091 -0.707071 -0.505051 -0.30303 -0.10101 0.10101 
0.30303 0.50505 0.70707 0.909091 1.11111 1.31313 1.51515 1.71717 1.91919 
2.12121 2.32323 2.52525 2.72727 2.92929 3.13131 3.33333 
POINT_DATA 39304
VECTORS grad float
-0.0773299 0.0326879 -0.0596634 -0.0814154 0.0200097 -0.0700901 -0.0860138 0.00822194 -0.080958 
-0.0908848 -0.00309272 -0.0920602 -0.0953724 -0.0141012 -0.104378 -0.0996373 -0.024932 -0.117402 
-0.101638 -0.0360745 -0.132082 -0.102205 -0.0474145 -0.147812 -0.097984 -0.0594734 -0.164261 
-0.0904601 -0.0720281 -0.181205 -0.076737 -0.0851008 -0.195001 -0.0583646 -0.0985621 -0.206435 
-0.0366589 -0.111279 -0.207952 -0.0122374 -0.123389 -0.201389 0.00774772 -0.132243 -0.180754 
0.0238083 -0.138216 -0.147669 0.0290156 -0.137366 -0.105461 0.0238038 -0.129967 -0.0544951 
0.0109799 -0.112421 -0.00440492 -0.0097733 -0.0843068 0.0447727 -0.025509 -0.0470541 0.0867837 
-0.0355728 0.00052898 0.120693 -0.0313202 0.0473679 0.146294 -0.00949768 0.0932935 0.161699 
0.0204869 0.126768 0.170254 0.0613542 0.14364 0.169678 0.0979072 0.150339 0.165739 
0.128205 0.142287 0.156924 0.151051 0.132421 0.147984 0.162131 0.119691 0.138846 
0.16974 0.10807 0.130739 0.17137 0.0983571 0.124404 0.172672 0.0893805 0.119091 
0.173357 0.0817892 0.115701 -0.0898572 0.0331446 -0.0563691 -0.0932057 0.0231836 -0.0677906 
-0.0972445 0.0140634 -0.0796349 -0.10165 0.00538989 -0.091704 -0.105955 -0.0028206 -0.105199 
-0.110201 -0.0107622 -0.119523 -0.112439 -0.0186878 -0.135945 -0.113404 -0.0266032 -0.153697 
-0.109644 -0.0348696 -0.172823 -0.102624 -0.043378 -0.192897 -0.0890446 -0.0522815 -0.210556 
-0.0705445 -0.0614814 -0.226402 -0.0477304 -0.0703776 -0.232806 -0.0214013 -0.0790264 -0.231517 
0.00209005 -0.0854293 -0.216096 0.0230711 -0.0898455 -0.188174 0.0349732 -0.088792 -0.150556 
0.0381593 -0.0824876 -0.10363 0.0342779 -0.0677818 -0.0565449 0.0230345 -0.0443243 -0.00929409 
0.0141279 -0.013586 0.031964 0.007863 0.0253829 0.0664478 0.0108443 0.0635723 0.0936875 
0.0251734 0.100805 0.112037 0.0453453 0.128393 0.124523 0.0733077 0.143119 0.129193 
0.0991538 0.149454 0.130737 0.121931 0.143621 0.12775 0.139883 0.135659 0.124126 
0.150216 0.124337 0.119499 0.157834 0.113673 0.115378 0.160776 0.104144 0.112126 
0.163183 0.0952988 0.109632 0.164582 0.0877411 0.108563 -0.0980814 0.0324067 -0.0539631 
-0.100836 0.0254612 -0.0658333 -0.104323 0.0192929 -0.0780908 -0.108199 0.0135376 -0.0905542 
-0.112102 0.00839167 -0.104493 -0.116021 0.00359959 -0.119288 -0.11809 -0.000853858 -0.136304 
-0.118987 -0.00509283 -0.154726 -0.115298 -0.00932943 -0.174736 -0.108445 -0.0135644 -0.195842 
-0.0950227 -0.0181175 -0.214923 -0.0766726 -0.0229091 -0.232485 -0.0535628 -0.027946 -0.24128 
-0.0265747 -0.0331828 -0.242932 -0.00127976 -0.037391 -0.231197 0.0225174 -0.0406891 -0.207621 
0.0387284 -0.0401347 -0.174514 0.0476566 -0.0358816 -0.132258 0.0500373 -0.0250781 -0.0891355 
0.0455978 -0.00745112 -0.0451105 0.0416331 0.015874 -0.00597677 0.0382053 0.0456405 0.0276278 
0.0405875 0.0749089 0.0550285 0.0500999 0.103566 0.0748155 0.0637712 0.125173 0.0895715 
0.0829874 0.13738 0.0976196 0.101323 0.143063 0.102807 0.118381 0.139284 0.103848 
0.132368 0.133423 0.103994 0.141507 0.124273 0.102729 0.148612 0.115417 0.101641 
0.152215 0.107068 0.100858 0.155268 0.0992749 0.100643 0.157284 0.0925289 0.101499 
-0.104019 0.031034 -0.0520292 -0.106257 0.0272625 -0.0640578 -0.109196 0.0241973 -0.0764293 
-0.112508 0.0215074 -0.0889829 -0.115894 0.0195676 -0.102974 -0.119322 0.0180634 -0.1178 
-0.121007 0.0172177 -0.1348 -0.121587 0.0167889 -0.153175 -0.117761 0.0167081 -0.173117 
-0.110896 0.0168673 -0.194139 -0.0976382 0.016761 -0.213346 -0.0795856 0.0164557 -0.231192 
-0.0566118 0.0152986 -0.241052 -0.0296281 0.0134474 -0.244404 -0.00343413 0.0112981 -0.235545 
0.0220611 0.00888488 -0.215882 0.0413136 0.00856697 -0.187245 0.0545729 0.0102606 -0.149992 
0.0617917 0.0165972 -0.11134 0.0627185 0.0277702 -0.0712313 0.0626932 0.0432047 -0.0349505 
0.0615916 0.0634563 -0.00299732 0.0637316 0.0836594 0.0237794 0.0698497 0.103803 0.0442032 
0.0787798 0.11938 0.060346 0.0914591 0.128869 0.0707809 0.103982 0.133746 0.0786351 
0.116277 0.131935 0.0827472 0.126793 0.128277 0.0858416 0.134501 0.121706 0.0873292 
0.140816 0.11511 0.0887686 0.144734 0.10847 0.0901252 0.148189 0.102219 0.0919033 
0.150771 0.0966983 0.0944749 -0.105798 0.0292916 -0.0510281 -0.107641 0.0284766 -0.0626539 
-0.110069 0.0282956 -0.0745986 -0.112808 0.0284516 -0.0867129 -0.115563 0.0294284 -0.100136 
-0.118327 0.0308819 -0.11432 -0.119409 0.0331754 -0.13044 -0.119426 0.036001 -0.147786 
-0.115302 0.0393438 -0.166444 -0.108324 0.0430435 -0.186005 -0.0953989 0.0464178 -0.203822 
-0.0780129 0.0495481 -0.220329 -0.0559297 0.051314 -0.22976 -0.0300191 0.0519684 -0.233423 
-0.00434179 0.0512999 -0.226434 0.0211291 0.0494613 -0.21002 0.0415231 0.0483143 -0.185591 
0.0570435 0.047831 -0.153468 0.067173 0.05046 -0.119667 0.071687 0.056331 -0.0841192 
0.0744828 0.0654039 -0.0514586 0.0753362 0.0780964 -0.022062 0.0777956 0.091116 0.00310704 
0.0822259 0.104537 0.0230877 0.0885051 0.115173 0.0394638 0.0972495 0.122094 0.0510336 
0.106155 0.125894 0.0603178 0.115294 0.125169 0.066288 0.123428 0.122976 0.0712292 
0.129973 0.118464 0.0745455 0.135587 0.113801 0.0776969 0.139595 0.108875 0.0805645 
0.143268 0.104219 0.0837612 0.14631 0.10007 0.0875778 -0.105162 0.0273345 -0.0505687 
-0.106681 0.0293496 -0.0614656 -0.108619 0.0319259 -0.0726698 -0.110778 0.0348004 -0.0840371 
-0.112838 0.0385257 -0.096532 -0.114839 0.0427449 -0.109682 -0.115191 0.0479058 -0.124422 
-0.114499 0.0536629 -0.140169 -0.109986 0.0600043 -0.156836 -0.102836 0.0667487 -0.174138 
-0.0903407 0.0730425 -0.189683 -0.0738355 0.0789984 -0.20391 -0.053081 0.0831319 -0.212043 
-0.0288641 0.0857806 -0.215211 -0.00452553 0.0862575 -0.209509 0.0199208 0.0848133 -0.195958 
0.0403533 0.0828622 -0.175586 0.0569327 0.0804242 -0.148666 0.0688537 0.0797867 -0.119936 
0.0759221 0.0810244 -0.0893236 0.0808896 0.0846237 -0.0607284 0.0834822 0.0908925 -0.034414 
0.0865871 0.0978214 -0.0114239 0.0903206 0.10556 0.00748661 0.0951627 0.111886 0.023426 
0.101483 0.116326 0.0354038 0.108046 0.118893 0.0454003 0.114962 0.118742 0.052524 
0.121345 0.117583 0.0586725 0.126886 0.114831 0.0632811 0.131848 0.11191 0.067671 
0.135815 0.108699 0.0716842 0.1396 0.105669 0.0759662 0.143042 0.102979 0.0807542 
-0.101454 0.0256225 -0.0505921 -0.102705 0.0299583 -0.0604505 -0.104202 0.034795 -0.0706152 
-0.105831 0.0398977 -0.0809427 -0.107236 0.0458137 -0.0922036 -0.10851 0.052202 -0.104006 
-0.108189 0.0594977 -0.11704 -0.106858 0.067368 -0.130853 -0.102078 0.0757395 -0.145213 
-0.0949195 0.0844567 -0.159952 -0.0830867 0.0925469 -0.172964 -0.0677483 0.100167 -0.184681 
-0.0487012 0.105674 -0.191247 -0.0266322 0.10946 -0.193614 -0.00424385 0.1106 -0.188742 
0.0184271 0.109401 -0.177464 0.037982 0.106929 -0.16052 0.0545456 0.103236 -0.138136 
0.0672127 0.100401 -0.113974 0.075821 0.0984593 -0.0879589 0.0822892 0.0982414 -0.0632988 
0.0863382 0.0999719 -0.0401703 0.090275 0.102549 -0.0196168 0.0940743 0.106165 -0.00222366 
0.0984777 0.10929 0.0127432 0.103687 0.11176 0.0244749 0.109109 0.113267 0.0345088 
0.114843 0.113378 0.042081 0.120282 0.112902 0.0487622 0.125255 0.111502 0.0540366 
0.129855 0.109989 0.0590807 0.133815 0.108282 0.0637285 0.137703 0.106693 0.0686124 
0.141458 0.105325 0.0739408 -0.0958023 0.0240656 -0.0509212 -0.0968167 0.0303997 -0.059545 
-0.0979066 0.037182 -0.0684811 -0.0990365 0.0442023 -0.0775831 -0.0998121 0.0519559 -0.0874164 
-0.100382 0.0601352 -0.0976744 -0.0994235 0.0691019 -0.108794 -0.0974975 0.0785671 -0.12046 
-0.0925298 0.0883553 -0.132314 -0.0854644 0.0983663 -0.144297 -0.0744419 0.107542 -0.154611 
-0.0604515 0.11609 -0.163674 -0.0433517 0.122342 -0.1685 -0.0237182 0.126721 -0.169874 
-0.0036674 0.12822 -0.165542 0.0167526 0.12717 -0.156163 0.0348497 0.124358 -0.142248 
0.0507167 0.119852 -0.12398 0.063468 0.115497 -0.104064 0.0729736 0.111297 -0.0824338 
0.0805175 0.108311 -0.0616262 0.0858437 0.106697 -0.0417491 0.0907307 0.106024 -0.0237956 
0.0950787 0.106505 -0.00820304 0.0996756 0.107132 0.00545193 0.104604 0.107953 0.0165233 
0.109648 0.108511 0.0261672 0.114859 0.108685 0.0337414 0.119865 0.108673 0.0405281 
0.124546 0.108364 0.0460713 0.128968 0.108047 0.0513997 0.132941 0.107713 0.0563583 
0.136928 0.107448 0.061538 0.140941 0.107314 0.0671339 -0.088375 0.0228979 -0.0511714 
-0.0891475 0.0307246 -0.0585416 -0.0898765 0.0389597 -0.0662182 -0.0905824 0.0474116 -0.0740576 
-0.0908553 0.056488 -0.0824512 -0.0908768 0.0659269 -0.0911666 -0.0894808 0.0759766 -0.100443 
-0.087187 0.0864132 -0.110075 -0.0822651 0.0969504 -0.119636 -0.0755307 0.107557 -0.129148 
-0.065499 0.117138 -0.1371 -0.0529944 0.12595 -0.143882 -0.0379157 0.132389 -0.147204 
-0.0207396 0.136894 -0.147708 -0.00309305 0.13847 -0.143736 0.0149696 0.137456 -0.135805 
0.0313597 0.134428 -0.124269 0.046144 0.129468 -0.109272 0.0585287 0.124181 -0.0928077 
0.0684138 0.118553 -0.0748137 0.0766432 0.113752 -0.0572849 0.083001 0.109885 -0.0402819 
0.0888226 0.106987 -0.0247156 0.093986 0.10528 -0.0109125 0.0991964 0.104156 0.00133173 
0.104469 0.103812 0.0114975 0.109755 0.103733 0.0204502 0.115058 0.10404 0.027644 
0.120144 0.104503 0.0341378 0.124887 0.105214 0.0395263 0.129371 0.106019 0.0447229 
0.13341 0.106987 0.0495888 0.137467 0.107959 0.054677 0.14156 0.108938 0.0601838 
-0.0797232 0.0219988 -0.0513671 -0.0802497 0.0309693 -0.0574707 -0.0806503 0.0403172 -0.0638666 
-0.0809839 0.0498655 -0.0704177 -0.0808412 0.0599096 -0.0773632 -0.0804221 0.0702416 -0.0845376 
-0.0787261 0.080969 -0.0920194 -0.0762214 0.0919467 -0.0996958 -0.0715064 0.102772 -0.107111 
-0.0652669 0.113493 -0.114347 -0.0563506 0.123012 -0.120168 -0.0454266 0.131629 -0.124928 
-0.0324199 0.13787 -0.12691 -0.0177163 0.142177 -0.12663 -0.00252015 0.143637 -0.122893 
0.0131117 0.142579 -0.116098 0.027623 0.139424 -0.106492 0.0410584 0.134255 -0.094185 
0.0527657 0.128442 -0.0806215 0.0626729 0.12196 -0.0657488 0.0713188 0.116001 -0.0511032 
0.0785389 0.110632 -0.0367141 0.0852843 0.106218 -0.0233882 0.0914471 0.102975 -0.011367 
0.0975605 0.100618 -0.00060151 0.103608 0.0994391 0.00848959 0.109563 0.0989403 0.0165433 
0.115384 0.099427 0.0230929 0.120904 0.100376 0.0290191 0.125951 0.102054 0.033961 
0.130665 0.103932 0.0387387 0.134805 0.106154 0.0432335 0.138913 0.108301 0.0479632 
0.142963 0.110308 0.0531349 -0.070234 0.0213124 -0.051141 -0.0704945 0.0310957 -0.0561283 
-0.0706059 0.0412335 -0.061375 -0.070638 0.0515597 -0.0667593 -0.0702112 0.06226 -0.0724051 
-0.069518 0.0731775 -0.0782027 -0.0677246 0.0842841 -0.0841194 -0.0652345 0.0955104 -0.0901116 
-0.0609316 0.106354 -0.0957267 -0.0553786 0.116933 -0.101082 -0.0476857 0.126163 -0.105173 
-0.0383879 0.134382 -0.108316 -0.0274143 0.140248 -0.109225 -0.0150752 0.144196 -0.108313 
-0.00222737 0.145402 -0.104721 0.0110705 0.144183 -0.0987581 0.0237039 0.140844 -0.0905923 
0.0356994 0.135467 -0.0803122 0.0465661 0.12923 -0.0689665 0.0562572 0.122096 -0.0565107 
0.065122 0.115255 -0.0441386 0.0730527 0.108747 -0.031861 0.080694 0.103181 -0.0203965 
0.0879799 0.0987718 -0.00992995 0.0952289 0.0955042 -0.000524246 0.102428 0.0937582 0.00746693 
0.109454 0.0930715 0.0145163 0.116227 0.093921 0.0202002 0.122555 0.0955345 0.0252903 
0.128179 0.0983546 0.0294432 0.133289 0.101475 0.0334484 0.137515 0.105112 0.0371992 
0.141553 0.10856 0.0412163 0.145236 0.111651 0.0457345 -0.0601167 0.0207858 -0.0505984 
-0.0600961 0.0311332 -0.0545824 -0.0599478 0.0418189 -0.0587784 -0.0597316 0.0526843 -0.063087 
-0.0591192 0.063807 -0.0675445 -0.0582769 0.0750792 -0.0720883 -0.0565381 0.0863412 -0.0766124 
-0.0542316 0.0975966 -0.0811238 -0.0504949 0.108254 -0.085197 -0.0457717 0.118499 -0.0889678 
-0.0393834 0.127273 -0.09163 -0.0317462 0.134943 -0.0934607 -0.0227764 0.140298 -0.0934962 
-0.0127208 0.143768 -0.0920691 -0.0021447 0.144617 -0.0885543 0.0088918 0.143148 -0.0831928 
0.019648 0.139581 -0.0761018 0.0301352 0.133999 -0.0673504 0.0400391 0.127412 -0.0577097 
0.0493353 0.119778 -0.0471428 0.0582708 0.112264 -0.036587 0.0667984 0.104886 -0.0260439 
0.0753146 0.098442 -0.0161567 0.0838165 0.0931436 -0.00707431 0.0923753 0.08921 0.0010609 
0.10101 0.087096 0.00793321 0.109407 0.0863956 0.0138992 0.117459 0.0877452 0.0185511 
0.124873 0.0901582 0.0226039 0.13128 0.0942503 0.025711 0.136913 0.0987398 0.0286785 
0.141213 0.103914 0.0314057 0.145088 0.108756 0.0344446 0.148163 0.112972 0.0380703 
-0.0496253 0.0202407 -0.0495536 -0.0493083 0.0310102 -0.0527273 -0.0489257 0.0421141 -0.0560524 
-0.0485083 0.0533958 -0.059458 -0.0478039 0.0648453 -0.0629171 -0.0469328 0.0763924 -0.0664073 
-0.0453946 0.0877657 -0.0697767 -0.0434339 0.099029 -0.0730694 -0.0404087 0.109513 -0.0758932 
-0.0366494 0.119458 -0.0783935 -0.0316434 0.12782 -0.0799193 -0.0257023 0.134993 -0.0807142 
-0.0187189 0.139858 -0.080049 -0.0108861 0.142842 -0.0781942 -0.00252305 0.143272 -0.0746873 
0.00630918 0.141444 -0.069719 0.0151907 0.137506 -0.0633642 0.0241196 0.131545 -0.0556783 
0.0329685 0.12444 -0.0472327 0.0417339 0.116146 -0.0379958 0.0506358 0.10782 -0.0287272 
0.059692 0.0994596 -0.0194228 0.0691157 0.0920423 -0.0106931 0.0789905 0.0857829 -0.00266853 
0.089121 0.0811448 0.00442002 0.0995923 0.0786688 0.0102605 0.109796 0.0780245 0.0151208 
0.119611 0.0800364 0.0185596 0.128527 0.0834789 0.02131 0.136024 0.08918 0.0229734 
0.14235 0.095398 0.0244778 0.146658 0.102506 0.0257085 0.150166 0.109097 0.0273305 
0.152167 0.114715 0.0296891 -0.0388292 0.0196807 -0.0480996 -0.0382032 0.0307563 -0.0506204 
-0.0376071 0.042173 -0.053221 -0.0370269 0.0537708 -0.0558642 -0.0363065 0.0654692 -0.0584797 
-0.0355049 0.0772259 -0.0610793 -0.0342861 0.0886748 -0.0634879 -0.0328033 0.0999286 -0.0657756 
-0.0306082 0.110248 -0.0675884 -0.0279219 0.119924 -0.0690737 -0.0243616 0.127909 -0.0697015 
-0.0201457 0.134626 -0.069686 -0.0151344 0.139017 -0.0684609 -0.00947508 0.141511 -0.06625 
-0.00327707 0.141473 -0.0626944 0.00339745 0.139194 -0.0579493 0.0104063 0.13477 -0.0520548 
0.0177362 0.128286 -0.0450571 0.0254549 0.120528 -0.0373911 0.0335789 0.111443 -0.029029 
0.0423623 0.102193 -0.0206163 0.0518913 0.0927571 -0.0121466 0.0622492 0.0842894 -0.00423234 
0.0736246 0.0770104 0.00300032 0.08554 0.0716367 0.00922459 0.0981756 0.0688035 0.0141043 
0.11054 0.0682721 0.0178405 0.122513 0.0710785 0.0199187 0.133269 0.0757378 0.0211506 
0.142107 0.0833227 0.0210461 0.149264 0.0915619 0.0207408 0.153528 0.100928 0.0200898 
0.156502 0.109557 0.0199374 0.157048 0.116801 0.0207235 -0.0277829 0.0189375 -0.0462221 
-0.0268206 0.0303076 -0.0482564 -0.0260052 0.042052 -0.0502942 -0.025268 0.0539954 -0.0523337 
-0.0245698 0.0660124 -0.0542741 -0.0238944 0.0780724 -0.0561568 -0.0230776 0.0897326 -0.0577947 
-0.0221713 0.10114 -0.0592774 -0.0209103 0.111482 -0.0602848 -0.0194047 0.121091 -0.0609644 
-0.0173832 0.128888 -0.0608759 -0.0149747 0.135327 -0.0602114 -0.012003 0.13936 -0.0585165 
-0.00857243 0.141432 -0.0559822 -0.00460369 0.140913 -0.0523109 -0.000158917 0.138101 -0.047634 
0.00487432 0.13304 -0.0419505 0.0104725 0.12582 -0.0353009 0.0169138 0.117154 -0.02801 
0.0242334 0.106983 -0.0200513 0.0327858 0.0964864 -0.0119998 0.0427319 0.0856224 -0.00384331 
0.0540968 0.0757449 0.0037455 0.067203 0.0670778 0.0106376 0.0812817 0.0606507 0.0163415 
0.0966571 0.0572103 0.0204611 0.111819 0.0566665 0.0231048 0.126671 0.0603227 0.0236082 
0.139898 0.0663885 0.0229518 0.150556 0.0762589 0.020464 0.158822 0.0869754 0.0176782 
0.162967 0.0991489 0.014379 0.165142 0.110318 0.011753 0.16361 0.119598 0.0103944 
-0.0165152 0.0180322 -0.04397 -0.0151924 0.0296864 -0.0456651 -0.0141527 0.041772 -0.0472828 
-0.0132636 0.0540869 -0.0488593 -0.0126213 0.0664845 -0.0502734 -0.0121224 0.0789301 -0.0515931 
-0.0117805 0.0909219 -0.0526282 -0.011538 0.102626 -0.0534831 -0.0113031 0.113157 -0.053867 
-0.0110735 0.122879 -0.053926 -0.0106732 0.130656 -0.0532821 -0.0101449 0.136972 -0.0521111 
-0.0092724 0.140751 -0.0500264 -0.00811953 0.142462 -0.0471973 -0.00643687 0.14145 -0.0433512 
-0.00428556 0.13803 -0.0386054 -0.00131901 0.132199 -0.0329123 0.00243015 0.124054 -0.0263097 
0.00746358 0.114256 -0.0190363 0.0138348 0.102736 -0.0110642 0.0220567 0.0907085 -0.00293601 
0.0323707 0.0781056 0.0053686 0.0448069 0.0665002 0.0130654 0.0598476 0.0561189 0.0200162 
0.0764242 0.0483573 0.025504 0.0950485 0.0440886 0.0290412 0.11357 0.0434214 0.03062 
0.131942 0.0479764 0.0293592 0.148194 0.0556165 0.0264875 0.161099 0.0681277 0.021072 
0.170718 0.081725 0.0152122 0.17468 0.0971927 0.00858681 0.175822 0.111345 0.00286884 
0.171658 0.123023 -0.00114114 -0.00494201 0.016813 -0.0414304 -0.00318864 0.0288084 -0.0429044 
-0.00186295 0.0413384 -0.0442224 -0.000764476 0.0541522 -0.0454574 -0.000146395 0.0671147 -0.0464734 
0.000192741 0.0801634 -0.0473621 3.92878e-05 0.0927557 -0.0479325 -0.000426141 0.105059 -0.0483014 
-0.00130063 0.1161 -0.0481994 -0.00245724 0.12627 -0.0477727 -0.00381869 0.134324 -0.0466843 
-0.00533378 0.140791 -0.0450996 -0.00674121 0.144506 -0.0426699 -0.00806091 0.145976 -0.0395518 
-0.00887167 0.144502 -0.03547 -0.0092322 0.140422 -0.0305356 -0.00856682 0.133706 -0.0246355 
-0.00691657 0.124459 -0.0178084 -0.0035452 0.113316 -0.0101953 0.00161903 0.100198 -0.00176344 
0.0093106 0.0863448 0.00697178 0.0198592 0.0716614 0.01605 0.0334024 0.0579362 0.0245117 
0.0506209 0.0453868 0.0322169 0.0701685 0.0358426 0.0380706 0.0928214 0.0303052 0.0414558 
0.115603 0.0291872 0.0421208 0.138569 0.0344772 0.0388416 0.1588 0.0436724 0.0332083 
0.174711 0.0590337 0.023858 0.186145 0.0757832 0.0138087 0.18987 0.0949238 0.00255573 
0.18966 0.112395 -0.00742649 0.182042 0.126726 -0.0150167 0.00692458 0.0152923 -0.038615 
0.00917562 0.0276839 -0.039981 0.0108467 0.0407572 -0.0411147 0.0122096 0.0541925 -0.0421251 
0.0128339 0.0678967 -0.042866 0.0130294 0.0817571 -0.0434505 0.0123609 0.0952082 -0.0436888 
0.0111452 0.1084 -0.0437078 0.00908136 0.120259 -0.0432522 0.00643262 0.131198 -0.0424692 
0.00317447 0.139817 -0.0410427 -0.00054072 0.146697 -0.0391334 -0.00440147 0.150528 -0.0364018 
-0.00838082 0.151876 -0.0330002 -0.011884 0.149967 -0.0286242 -0.014966 0.145177 -0.0233862 
-0.0168269 0.137466 -0.0170898 -0.0175155 0.12695 -0.00977735 -0.0160502 0.114258 -0.0014816 
-0.0123412 0.0992987 0.00783839 -0.00537177 0.0833386 0.0176898 0.00528338 0.066247 0.028142 
0.0199679 0.0500257 0.0379993 0.0395976 0.0348725 0.0471267 0.0625705 0.0231154 0.0539051 
0.0900007 0.0158867 0.0575515 0.117906 0.0140035 0.0574478 0.146499 0.0198713 0.0519061 
0.171623 0.0306032 0.0429869 0.19127 0.0490153 0.0287348 0.204962 0.0691777 0.0134254 
0.208398 0.0923547 -0.00370469 0.206528 0.113467 -0.0190765 0.194668 0.130695 -0.0311386 
0.0192242 0.0132717 -0.0356438 0.0221141 0.0261407 -0.0369737 0.0242764 0.0399029 -0.0380039 
0.0260522 0.0541396 -0.038875 0.0268099 0.0688471 -0.0394344 0.0269764 0.0838282 -0.0398127 
0.0258505 0.0985273 -0.0398214 0.023906 0.113048 -0.039596 0.0205861 0.126198 -0.0388877 
0.0163178 0.138404 -0.0378462 0.0109481 0.148031 -0.036161 0.00475251 0.155724 -0.0339928 
-0.001887 0.159944 -0.0309924 -0.00888821 0.161335 -0.0273139 -0.0154406 0.15904 -0.0226056 
-0.0215961 0.153483 -0.0169863 -0.0263159 0.144683 -0.0101548 -0.0296575 0.13277 -0.00215942 
-0.0304101 0.118438 0.00711285 -0.0284657 0.101586 0.0177153 -0.0224979 0.0834956 0.0292242 
-0.011982 0.0640042 0.0417579 0.00376118 0.0452456 0.0538541 0.0259198 0.0273863 0.0654132 
0.0527321 0.0132131 0.0740497 0.0857494 0.00395469 0.0787891 0.119784 0.000904292 0.0783329 
0.155295 0.00685554 0.0703432 0.186477 0.0186051 0.0574713 0.210823 0.0395098 0.0368907 
0.227374 0.0625178 0.0147199 0.230499 0.089148 -0.0101897 0.226632 0.113349 -0.0326438 
0.209605 0.132978 -0.0504758 0.0319748 0.0107301 -0.0325103 0.0356507 0.0241612 -0.0338789 
0.0384562 0.0387641 -0.0348897 0.0407993 0.0539895 -0.0357106 0.0418229 0.0699729 -0.0361858 
0.0420801 0.0863965 -0.0364602 0.0405569 0.102749 -0.0363461 0.0379059 0.119057 -0.035986 
0.0332605 0.133992 -0.03513 0.0272397 0.147982 -0.033932 0.0195348 0.159078 -0.0320709 
0.0105668 0.168003 -0.0297125 0.000809476 0.172896 -0.0264778 -0.0095909 0.174504 -0.0225291 
-0.0195642 0.171871 -0.0174486 -0.0291596 0.165487 -0.011367 -0.0370849 0.155501 -0.00385571 
-0.0434069 0.142058 0.00502818 -0.0467022 0.125992 0.0155831 -0.0468445 0.107194 0.0278787 
-0.0421696 0.0869477 0.0416091 -0.0320491 0.0650653 0.0569613 -0.0153334 0.0437264 0.0721746 
0.00947659 0.0230546 0.0872172 0.04056 0.0062533 0.0986839 0.0800078 -0.00538711 0.105383 
0.121221 -0.0100235 0.105008 0.164993 -0.00450388 0.0943767 0.203446 0.00772254 0.0768575 
0.233497 0.0305387 0.0484625 0.253533 0.0558013 0.0177621 0.25632 0.0852772 -0.0169086 
0.250106 0.111991 -0.0482082 0.226949 0.133507 -0.0731623 0.0452912 0.00737511 -0.0293123 
0.0499814 0.0214361 -0.0307581 0.0536865 0.037021 -0.0318031 0.0568682 0.0534154 -0.0326351 
0.0584245 0.0709681 -0.0331001 0.0590372 0.0891933 -0.0333521 0.0573048 0.107698 -0.033206 
0.0540874 0.126381 -0.0328077 0.0480916 0.143782 -0.0319009 0.0401798 0.160299 -0.0306435 
0.0298134 0.173535 -0.0286901 0.0176059 0.184309 -0.0262148 0.00417974 0.190256 -0.0227944 
-0.0102393 0.192268 -0.0186041 -0.0241802 0.189277 -0.0131547 -0.0376984 0.18186 -0.0065916 
-0.0491799 0.170484 0.00164295 -0.0587065 0.155309 0.011482 -0.0647116 0.137492 0.0234379 
-0.0670486 0.116924 0.0375988 -0.0638039 0.0949186 0.053858 -0.0542496 0.0712902 0.0724891 
-0.0367041 0.0480967 0.0914977 -0.00935123 0.025437 0.11097 0.0260876 0.00663317 0.126272 
0.0723075 -0.00702933 0.136013 0.121218 -0.0133442 0.136407 0.174031 -0.00900489 0.12325 
0.220468 0.00248387 0.100691 0.256839 0.0252613 0.0632881 0.280753 0.0506419 0.022715 
0.283214 0.0805061 -0.0233172 0.2745 0.107487 -0.0648599 0.244748 0.129042 -0.0979515 
0.059247 0.00310058 -0.0260413 0.06521 0.0178682 -0.027608 0.0701044 0.0345947 -0.0287475 
0.074431 0.052362 -0.02966 0.0768221 0.0718156 -0.0301987 0.0780893 0.0922482 -0.0305205 
0.0763608 0.11347 -0.0304448 0.072735 0.135192 -0.0301174 0.0653608 0.155827 -0.0292693 
0.0554015 0.175712 -0.0280621 0.0420046 0.191847 -0.0261109 0.0260296 0.205169 -0.0236018 
0.00831169 0.212599 -0.0200509 -0.0108262 0.215228 -0.0156511 -0.0293531 0.211854 -0.00983645 
-0.0473395 0.203171 -0.00277003 -0.0627739 0.190176 0.00623681 -0.0757583 0.17304 0.0171065 
-0.0846622 0.153453 0.0305971 -0.0893158 0.131313 0.0468179 -0.0876568 0.107998 0.0659533 
-0.0788616 0.0833525 0.0883836 -0.0606478 0.0591247 0.111954 -0.0308748 0.0354093 0.136925 
0.00901478 0.01531 0.157198 0.0623929 3.23514e-05 0.171206 0.119589 -0.00806561 0.173148 
0.182322 -0.00575291 0.157595 0.237552 0.00362523 0.129553 0.280935 0.0241593 0.081792 
0.309171 0.0472429 0.0298279 0.31132 0.0747173 -0.0293751 0.299932 0.0994268 -0.0827405 
0.263064 0.118932 -0.125118 0.0738397 -0.00244214 -0.0227319 0.0813827 0.0130436 -0.0244414 
0.0878438 0.0309782 -0.0257172 0.0937299 0.0502139 -0.0267626 0.0974212 0.0717888 -0.0274478 
0.0998381 0.094722 -0.0279236 0.0985423 0.119179 -0.0280237 0.0948952 0.144602 -0.0278856 
0.0862484 0.169366 -0.0272274 0.0741534 0.193675 -0.0262103 0.0572377 0.213723 -0.0243896 
0.0367065 0.230575 -0.0219661 0.0137259 0.240018 -0.0183708 -0.0112505 0.243424 -0.0138207 
-0.0352578 0.239416 -0.0076823 -0.0584078 0.228849 -0.000138825 -0.0780961 0.213653 0.00957933 
-0.0944611 0.194013 0.0213852 -0.105966 0.17247 0.0362353 -0.112409 0.148943 0.0542567 
-0.111871 0.124909 0.0759381 -0.103441 0.100302 0.101757 -0.084415 0.0763571 0.129523 
-0.0523866 0.0532245 0.159678 -0.0084673 0.0332938 0.184796 0.0513064 0.0176324 0.203197 
0.115918 0.0082378 0.206976 0.187544 0.00792996 0.189553 0.250647 0.0137732 0.156699 
0.300293 0.0293286 0.0994782 0.332404 0.0470784 0.037154 0.334316 0.0686072 -0.0339601 
0.320653 0.0878328 -0.0979731 0.277673 0.102723 -0.148619 0.089214 -0.00954126 -0.0193751 
0.0987142 0.00667689 -0.0212544 0.107205 0.0259011 -0.022718 0.115159 0.0467223 -0.0239608 
0.120722 0.0706892 -0.0248814 0.124896 0.0964827 -0.025615 0.12456 0.124812 -0.02602 
0.121366 0.154747 -0.0262169 0.111577 0.184739 -0.0259093 0.0972378 0.214769 -0.0252539 
0.076204 0.239974 -0.023721 0.0501489 0.26156 -0.0215298 0.0207138 0.273666 -0.0179959 
-0.0114751 0.278049 -0.0133679 -0.0420605 0.273097 -0.00695686 -0.0712274 0.259885 0.00103148 
-0.0955392 0.241777 0.0113861 -0.11519 0.218967 0.0240124 -0.128932 0.195237 0.0400071 
-0.136517 0.170548 0.0595106 -0.136529 0.146524 0.0833328 -0.127979 0.12325 0.112037 
-0.107965 0.101204 0.143547 -0.073884 0.0806651 0.178501 -0.0264517 0.0626997 0.20831 
0.0387816 0.048166 0.231259 0.10974 0.0380717 0.23723 0.189 0.0344144 0.218583 
0.258848 0.0349746 0.181739 0.313836 0.0421943 0.116161 0.349274 0.0508833 0.0447418 
0.351041 0.0621028 -0.0367375 0.335592 0.0719023 -0.109956 0.287735 0.079029 -0.167623 
0.105149 -0.0184287 -0.0159202 0.116936 -0.00156075 -0.017992 0.127907 0.018849 -0.019688 
0.138446 0.0411402 -0.0211844 0.146565 0.0674286 -0.022425 0.153278 0.0960377 -0.0235171 
0.154728 0.12843 -0.0243699 0.152845 0.163217 -0.0250712 0.142368 0.199218 -0.0253268 
0.125965 0.236057 -0.0252751 0.100158 0.267662 -0.0242644 0.067298 0.295341 -0.0225345 
0.0296801 0.310773 -0.0192105 -0.0118147 0.316225 -0.0145874 -0.0505517 0.309743 -0.00793328 
-0.0868489 0.292706 0.000517588 -0.116043 0.270663 0.0114455 -0.138418 0.243816 0.0247514 
-0.153411 0.217477 0.0415219 -0.160712 0.191667 0.0619013 -0.159938 0.168011 0.0868936 
-0.150035 0.146792 0.1171 -0.128324 0.12754 0.150589 -0.0921201 0.110702 0.188104 
-0.0419148 0.0957454 0.220465 0.0269591 0.0832977 0.245951 0.101933 0.0730679 0.253183 
0.18575 0.0660542 0.233946 0.259582 0.0608914 0.195026 0.317644 0.0586513 0.125027 
0.355038 0.057027 0.0488755 0.356835 0.0564632 -0.0378708 0.340578 0.0555172 -0.115714 
0.290336 0.0538516 -0.1768 0.12183 -0.0297005 -0.0123343 0.136343 -0.012293 -0.0146288 
0.150398 0.00916349 -0.0166169 0.16421 0.032771 -0.0184421 0.175797 0.0612866 -0.0201153 
0.186092 0.0926521 -0.0217002 0.190432 0.12936 -0.0231913 0.191001 0.169452 -0.024623 
0.180445 0.212507 -0.025725 0.162215 0.257605 -0.0265995 0.130761 0.297267 -0.0264238 
0.0893894 0.332852 -0.0254605 0.0412841 0.35249 -0.0225443 -0.0123078 0.359133 -0.0180367 
-0.0612941 0.350344 -0.0111789 -0.106206 0.327905 -0.00224191 -0.140628 0.300567 0.00917504 
-0.164978 0.268526 0.0229728 -0.179908 0.239014 0.0400274 -0.185023 0.212136 0.0604745 
-0.181682 0.189329 0.0853426 -0.168783 0.171126 0.115208 -0.144426 0.15586 0.14832 
-0.106008 0.1442 0.185414 -0.0540161 0.133644 0.217473 0.016073 0.12456 0.242817 
0.0919518 0.114947 0.250069 0.176226 0.104568 0.231087 0.250357 0.0930951 0.192643 
0.308473 0.0798965 0.12347 0.345996 0.0662888 0.0484038 0.348053 0.0519768 -0.0368119 
0.332291 0.038526 -0.113175 0.282989 0.0266962 -0.172874 0.138782 -0.0431487 -0.00848676 
0.156246 -0.0253654 -0.0110459 0.173733 -0.00319022 -0.0133842 0.191231 0.0213181 -0.0156052 
0.206996 0.051428 -0.0178042 0.221756 0.0847904 -0.0199904 0.230205 0.124941 -0.0222915 
0.234657 0.169391 -0.0246653 0.225131 0.218841 -0.0269269 0.205967 0.271741 -0.0291111 
0.168297 0.319531 -0.0301795 0.116748 0.363488 -0.0304111 0.0555133 0.387537 -0.0281473 
-0.0136138 0.395365 -0.0238503 -0.0752836 0.383981 -0.0167223 -0.130356 0.355603 -0.00709 
-0.170133 0.322853 0.00493472 -0.195225 0.285904 0.0192562 -0.208486 0.25367 0.0363741 
-0.209422 0.226349 0.0564049 -0.201812 0.204823 0.0802999 -0.184542 0.189848 0.108563 
-0.156748 0.178552 0.139639 -0.116039 0.171771 0.174167 -0.0629693 0.165319 0.203826 
0.00658012 0.159307 0.226994 0.0811356 0.150372 0.233251 0.16295 0.137199 0.214987 
0.23479 0.120426 0.178666 0.29088 0.0979668 0.113837 0.327275 0.0742341 0.0436707 
0.329751 0.048308 -0.0356884 0.315313 0.0242718 -0.106735 0.269036 0.00379278 -0.162134 
0.156125 -0.0597528 -0.00425965 0.176869 -0.0418311 -0.00714418 0.198291 -0.0194129 -0.00991731 
0.220074 0.00539412 -0.0126313 0.241049 0.0361803 -0.0154913 0.261554 0.0704384 -0.0184362 
0.275878 0.112764 -0.0217961 0.286286 0.160198 -0.0254189 0.279403 0.215092 -0.0292943 
0.260596 0.27513 -0.0333441 0.215885 0.33115 -0.0362497 0.151744 0.384155 -0.0382972 
0.0735488 0.412914 -0.0370406 -0.0160989 0.421915 -0.033092 -0.0939815 0.407519 -0.0255976 
-0.161456 0.372426 -0.0149666 -0.206773 0.334093 -0.00216188 -0.230816 0.292651 0.0127295 
-0.240081 0.258351 0.0295906 -0.23395 0.231491 0.0485033 -0.219603 0.21187 0.0701943 
-0.195967 0.200433 0.0950258 -0.163587 0.193083 0.121661 -0.120477 0.190746 0.15051 
-0.0673579 0.187969 0.174729 -0.000892458 0.184605 0.192773 0.0691079 0.176437 0.196564 
0.144234 0.161302 0.179688 0.210024 0.140691 0.147879 0.261073 0.111434 0.0924946 
0.294518 0.0802702 0.0327586 0.297644 0.0458247 -0.034471 0.28573 0.0139863 -0.0946395 
0.245504 -0.0129451 -0.141517 0.173322 -0.0784803 0.000513921 0.197303 -0.0605427 -0.00278581 
0.222582 -0.0383071 -0.00607954 0.248551 -0.0137881 -0.00937008 0.274827 0.0165216 -0.0129683 