# vtk DataFile Version 3.0
vtk output
ASCII
DATASET RECTILINEAR_GRID
FIELD FieldData 2
base_index 1 3 int
68 68 68 
avtOriginalBounds 1 6 double
3.33333 10 3.33333 10 3.33333 10 
DIMENSIONS 34 34 34
X_COORDINATES 34 float
3.33333 3.53535 3.73737 3.93939 4.14141 4.34343 4.54545 4.74747 4.94949 
5.15152 5.35354 5.55556 5.75758 5.9596 6.16162 6.36364 6.56566 6.76768 
6.9697 7.17172 7.37374 7.57576 7.77778 7.9798 8.18182 8.38384 8.58586 
8.78788 8.9899 9.19192 9.39394 9.59596 9.79798 10 
Y_COORDINATES 34 float
3.33333 3.53535 3.73737 3.93939 4.14141 4.34343 4.54545 4.74747 4.94949 
5.15152 5.35354 5.55556 5.75758 5.9596 6.16162 6.36364 6.56566 6.76768 
6.9697 7.17172 7.37374 7.57576 7.77778 7.9798 8.18182 8.38384 8.58586 
8.78788 8.9899 9.19192 9.39394 9.59596 9.79798 10 
Z_COORDINATES 34 float
3.33333 3.53535 3.73737 3.93939 4.14141 4.34343 4.54545 4.74747 4.94949 
5.15152 5.35354 5.55556 5.75758 5.9596 6.16162 6.36364 6.56566 6.76768 
6.9697 7.17172 7.37374 7.57576 7.77778 7.9798 8.18182 8.38384 8.58586 
8.78788 8.9899 9.19192 9.39394 9.59596 9.79798 10 
POINT_DATA 39304
FIELD FieldData 1
grad 3 39304 float
0.0703001 0.000299727 -0.0274813 0.0719765 0.00290373 -0.0305247 0.0723315 0.00512995 -0.0340738 
0.0722002 0.00665443 -0.0375796 0.0709667 0.00658826 -0.0409869 0.0695828 0.00550092 -0.0441462 
0.0678231 0.00186064 -0.0466855 0.0662073 -0.00290719 -0.0488678 0.0649902 -0.0107975 -0.0500615 
0.0640125 -0.0197811 -0.0508498 0.063773 -0.0321357 -0.0503879 0.0636001 -0.0454669 -0.0495062 
0.0636575 -0.0621717 -0.0471743 0.063361 -0.0796371 -0.0444421 0.0616844 -0.100069 -0.0401493 
0.0591337 -0.120843 -0.0355321 0.0526977 -0.143137 -0.0294734 0.0450677 -0.165061 -0.0232398 
0.031319 -0.185087 -0.0161097 0.0165643 -0.203918 -0.00899613 -0.00422641 -0.215572 -0.00198163 
-0.0253615 -0.225642 0.00487254 -0.0489651 -0.224352 0.0105777 -0.0722465 -0.221863 0.0160901 
-0.092694 -0.208813 0.0199055 -0.112569 -0.195293 0.0235738 -0.125998 -0.176491 0.0255874 
-0.138982 -0.157703 0.027511 -0.145155 -0.139119 0.0280523 -0.15111 -0.120673 0.028546 
-0.151974 -0.105441 0.0279194 -0.152809 -0.0902912 0.0272749 -0.152221 -0.0790453 0.0257737 
-0.151632 -0.0677994 0.0242724 0.0728515 0.00230738 -0.023098 0.0743608 0.0056306 -0.0268081 
0.0739818 0.00851928 -0.0311527 0.07288 0.0105717 -0.0354167 0.0701399 0.0107284 -0.0394984 
0.0671119 0.009706 -0.0432552 0.0633642 0.00573563 -0.0461999 0.0597126 0.000533255 -0.0487175 
0.0563273 -0.00808086 -0.0500524 0.053195 -0.0177868 -0.0509408 0.0508431 -0.0308593 -0.0504522 
0.0486253 -0.0447774 -0.0495372 0.0468708 -0.0616167 -0.0471488 0.0449116 -0.0789734 -0.0443808 
0.0421543 -0.098348 -0.0401327 0.038793 -0.117793 -0.0355877 0.032747 -0.137554 -0.0297235 
0.0258712 -0.156811 -0.0236881 0.0147432 -0.173483 -0.0167754 0.0029158 -0.18911 -0.00983942 
-0.0131079 -0.19846 -0.00276338 -0.0293993 -0.206577 0.00421584 -0.0476088 -0.205846 0.0105013 
-0.0656449 -0.204183 0.0166351 -0.0821543 -0.194314 0.0214348 -0.0982937 -0.184031 0.0260877 
-0.11027 -0.169095 0.0290887 -0.121927 -0.154119 0.0319786 -0.128676 -0.138515 0.0331662 
-0.135248 -0.122995 0.034288 -0.137651 -0.10945 0.0338647 -0.14001 -0.0959656 0.0334163 
-0.140295 -0.0853847 0.0317609 -0.140581 -0.0748037 0.0301055 0.0764134 0.00653691 -0.0173744 
0.0777593 0.0108364 -0.0220682 0.0764712 0.0146124 -0.0275701 0.0741725 0.0173781 -0.0329273 
0.0695832 0.0178535 -0.0379564 0.0645737 0.0169494 -0.0425446 0.0585135 0.0125965 -0.0460302 
0.0525529 0.00687249 -0.0489849 0.0468682 -0.00264801 -0.0504696 0.0415287 -0.0132852 -0.0514407 
0.0372538 -0.0273654 -0.0508284 0.0332609 -0.0421904 -0.0497616 0.0302422 -0.0595887 -0.0471245 
0.0272135 -0.0773151 -0.0441079 0.0241457 -0.0963214 -0.0396113 0.0207118 -0.115207 -0.0348272 
0.0156505 -0.133554 -0.0287653 0.0100047 -0.151313 -0.0225317 0.001363 -0.166065 -0.0154174 
-0.00780679 -0.17986 -0.0082609 -0.0201455 -0.18792 -0.000851381 -0.0327234 -0.194943 0.0064873 
-0.0470158 -0.194537 0.0133183 -0.0612305 -0.193358 0.0200112 -0.0747608 -0.18538 0.0254879 
-0.08805 -0.177038 0.0308113 -0.0986248 -0.164601 0.0344098 -0.108967 -0.1521 0.0378808 
-0.115743 -0.138638 0.0393962 -0.122376 -0.125228 0.0408323 -0.125645 -0.113051 0.040406 
-0.128864 -0.100919 0.0399491 -0.129709 -0.0909716 0.0380227 -0.130553 -0.0810238 0.0360962 
0.0806493 0.0125487 -0.0112195 0.0818061 0.0178865 -0.0171052 0.0794739 0.0225767 -0.023987 
0.0758134 0.0260631 -0.0306363 0.0691419 0.0268208 -0.0367587 0.0619194 0.0259745 -0.0422976 
0.0533192 0.0211185 -0.0463779 0.0448475 0.0147278 -0.049803 0.0367316 0.00408717 -0.0514136 
0.0290904 -0.00771331 -0.0524302 0.0229128 -0.0230899 -0.0516156 0.0171992 -0.0391217 -0.0503115 
0.0130886 -0.057417 -0.0473167 0.00917922 -0.0758595 -0.0439401 0.00605467 -0.0948765 -0.0390745 
0.00279295 -0.113586 -0.0339315 -0.00107856 -0.130932 -0.0275554 -0.00531908 -0.147603 -0.0210107 
-0.0114509 -0.160813 -0.013602 -0.0179709 -0.173131 -0.00613944 -0.0268201 -0.180099 0.00164587 
-0.0358933 -0.18619 0.00937809 -0.0465715 -0.185999 0.0167298 -0.0572601 -0.185171 0.0239511 
-0.068041 -0.178722 0.0300252 -0.0786949 -0.171954 0.0359381 -0.0879216 -0.161591 0.0400359 
-0.0969941 -0.151149 0.0439906 -0.103701 -0.139501 0.0457505 -0.110297 -0.12788 0.0474187 
-0.114275 -0.116879 0.0469354 -0.1182 -0.10591 0.0464166 -0.119521 -0.0965091 0.0441932 
-0.120843 -0.0871079 0.0419698 0.0864128 0.0226005 -0.00408702 0.0873223 0.0291175 -0.0116369 
0.0836403 0.0347824 -0.0204027 0.0782441 0.0390062 -0.0287951 0.0689621 0.0399635 -0.036341 
0.0590019 0.0390381 -0.0431016 0.047346 0.0334063 -0.0478985 0.0359051 0.0260198 -0.0518693 
0.0250594 0.0137744 -0.0535518 0.0149022 0.000284423 -0.0545295 0.00686787 -0.017043 -0.0533344 
-0.000443116 -0.0349611 -0.0515994 -0.00525511 -0.0549196 -0.0479996 -0.00961694 -0.0748634 -0.0440104 
-0.0122231 -0.0947501 -0.0385027 -0.0147578 -0.114158 -0.0327293 -0.0169747 -0.131437 -0.0257746 
-0.0194124 -0.147941 -0.0186635 -0.022981 -0.160472 -0.0107499 -0.0268689 -0.172116 -0.0027873 
-0.0326721 -0.178441 0.00546972 -0.0387138 -0.183964 0.0136727 -0.0464643 -0.183745 0.0214885 
-0.0542966 -0.182963 0.0291692 -0.0628479 -0.177222 0.0356603 -0.0713543 -0.171195 0.0419786 
-0.0793542 -0.161947 0.0463533 -0.0872575 -0.152617 0.0505714 -0.0936787 -0.142041 0.0523865 
-0.100015 -0.131478 0.0541005 -0.104348 -0.12122 0.0534378 -0.108626 -0.110986 0.052736 
-0.11024 -0.101935 0.0501569 -0.111854 -0.092884 0.0475778 0.0928654 0.0348304 0.00257206 
0.0934334 0.0424976 -0.00680523 0.0882193 0.0490792 -0.0176143 0.0808744 0.0539767 -0.0278895 
0.0686993 0.0550568 -0.0369543 0.0557128 0.0539498 -0.0450075 0.0406981 0.0473751 -0.0505315 
0.0260087 0.0387897 -0.055034 0.0122205 0.0246362 -0.0567076 -0.00062199 0.0091301 -0.0575503 
-0.0105488 -0.0105462 -0.0558311 -0.0194515 -0.0307514 -0.0535184 -0.0248168 -0.0527838 -0.0491551 
-0.0294607 -0.0746294 -0.0443997 -0.0312912 -0.0957461 -0.0381152 -0.0328426 -0.116195 -0.0315845 
-0.0331537 -0.133678 -0.0239595 -0.0335549 -0.150266 -0.016198 -0.0344177 -0.162264 -0.00773717 
-0.0355516 -0.173359 0.000761065 -0.0383121 -0.179035 0.00948366 -0.0413378 -0.183966 0.0181464 
-0.0462638 -0.183558 0.0263798 -0.0513437 -0.182651 0.0344709 -0.0577783 -0.177354 0.04131 
-0.064245 -0.171802 0.0479649 -0.0710721 -0.163386 0.0525488 -0.0778559 -0.15489 0.0569636 
-0.083974 -0.145154 0.0587867 -0.0900314 -0.135421 0.0605002 -0.0946598 -0.125752 0.0596386 
-0.0992319 -0.116102 0.0587349 -0.101102 -0.107318 0.0558048 -0.102973 -0.0985336 0.0528747 
0.101041 0.0525055 0.00804754 0.101032 0.0612506 -0.00356517 0.0938298 0.0686038 -0.0168155 
0.0840036 0.0740156 -0.0293226 0.0682287 0.0750264 -0.0401448 0.0514947 0.0734815 -0.0496683 
0.0323632 0.0655468 -0.0559452 0.0137274 0.0552547 -0.0609448 -0.00353505 0.0384343 -0.0624075 
-0.0194863 0.0200956 -0.0628748 -0.0313946 -0.00292435 -0.0602726 -0.0418751 -0.0264187 -0.0570148 
-0.0474235 -0.0515522 -0.0514921 -0.0519235 -0.0763007 -0.0455867 -0.0523348 -0.0995483 -0.0381885 
-0.0522622 -0.121898 -0.0305833 -0.0500394 -0.140261 -0.0220583 -0.0478203 -0.157556 -0.0134371 
-0.0456205 -0.169388 -0.00432273 -0.0436958 -0.180246 0.00479997 -0.0434219 -0.18526 0.0139728 
-0.0434704 -0.189537 0.0230675 -0.0458298 -0.188539 0.0316022 -0.0484177 -0.18708 0.0399818 
-0.0530174 -0.181566 0.0469965 -0.0577142 -0.175825 0.053816 -0.0635035 -0.167535 0.0584394 
-0.0692918 -0.159172 0.0628846 -0.075064 -0.149699 0.0645971 -0.0807955 -0.140227 0.0661944 
-0.0855686 -0.130765 0.0650855 -0.0902859 -0.121317 0.0639325 -0.0923231 -0.112592 0.0606633 
-0.0943604 -0.103867 0.057394 0.109778 0.071401 0.0115153 0.109036 0.0812121 -0.00228888 
0.0996723 0.0893501 -0.017951 0.087151 0.0952964 -0.0326781 0.0674732 0.0962747 -0.0452855 
0.0466587 0.0942882 -0.0562905 0.0230027 0.0848892 -0.0632893 3.38181e-05 0.0727258 -0.068718 
-0.0210318 0.0529071 -0.0697985 -0.0403601 0.0313728 -0.069696 -0.054332 0.00454818 -0.0659459 
-0.0664126 -0.0226919 -0.0614797 -0.0719597 -0.0513672 -0.0545396 -0.0760976 -0.0794348 -0.0472409 
-0.0747392 -0.105133 -0.0385434 -0.0726876 -0.12967 -0.0296949 -0.0675547 -0.149049 -0.0201745 
-0.0623555 -0.16716 -0.0106113 -0.0568165 -0.178772 -0.000828481 -0.0515797 -0.189319 0.00892543 
-0.0481559 -0.193474 0.0185058 -0.0451286 -0.196895 0.0279861 -0.0449438 -0.195051 0.0367489 
-0.0450687 -0.192783 0.0453434 -0.0479184 -0.186796 0.0524559 -0.0509297 -0.180614 0.0593635 
-0.0557583 -0.172233 0.0639656 -0.0606258 -0.163793 0.068382 -0.0660897 -0.154426 0.0699529 
-0.0715314 -0.14506 0.0714044 -0.076451 -0.135708 0.0700486 -0.081315 -0.126369 0.0686475 
-0.083513 -0.117655 0.0650634 -0.085711 -0.108941 0.0614794 0.120073 0.0936762 0.00942285 
0.118166 0.10452 -0.00645088 0.106157 0.113479 -0.0244432 0.0903483 0.120016 -0.0413572 
0.0659285 0.121064 -0.055827 0.0401116 0.118626 -0.0683442 0.0108021 0.107473 -0.0759796 
-0.0175708 0.0929827 -0.0816487 -0.0433498 0.0692482 -0.0818724 -0.0667984 0.0435127 -0.0806622 
-0.0830611 0.0116072 -0.0750304 -0.0968034 -0.0206425 -0.0686264 -0.101839 -0.0540809 -0.0595547 
-0.105011 -0.0866201 -0.0501893 -0.100912 -0.115652 -0.0396786 -0.0958977 -0.143168 -0.0291186 
-0.0868135 -0.163946 -0.0183389 -0.0776378 -0.183166 -0.0076061 -0.0679938 -0.194409 0.00288672 
-0.0587426 -0.204441 0.0132905 -0.051849 -0.2072 0.0231603 -0.045473 -0.209204 0.0328977 
-0.0428064 -0.2058 0.041686 -0.0405481 -0.202011 0.0502913 -0.0418834 -0.194843 0.0572864 
-0.0434429 -0.18752 0.0640707 -0.0475243 -0.178455 0.0684826 -0.0516778 -0.169351 0.0727067 
-0.0569373 -0.159658 0.0740499 -0.0621892 -0.149972 0.0752731 -0.06726 -0.140463 0.0736723 
-0.0722752 -0.130967 0.0720259 -0.0746173 -0.122132 0.0681944 -0.0769595 -0.113297 0.0643628 
0.130976 0.11464 0.00466008 0.127804 0.126601 -0.0131841 0.113049 0.136563 -0.0334926 
0.0937764 0.143892 -0.0526299 0.0642639 0.145249 -0.0691128 0.0330227 0.142546 -0.0832534 
-0.00253978 0.129695 -0.091538 -0.036893 0.112852 -0.0973761 -0.067897 0.0849548 -0.0964392 
-0.0958842 0.0547362 -0.0937769 -0.114569 0.0173595 -0.0857943 -0.130018 -0.0202845 -0.0769959 
-0.134284 -0.0588523 -0.0653792 -0.136183 -0.0962039 -0.0535647 -0.128843 -0.128813 -0.0409786 
-0.120355 -0.159506 -0.0284734 -0.106759 -0.181685 -0.0163275 -0.0930687 -0.201975 -0.00433835 
-0.0788904 -0.21258 0.00684809 -0.0652307 -0.221807 0.0178752 -0.0546824 -0.222764 0.0279465 
-0.0447992 -0.222949 0.0378505 -0.0396827 -0.21761 0.0465562 -0.0350838 -0.211936 0.0550658 
-0.0350402 -0.203318 0.0618502 -0.0352837 -0.194593 0.0684203 -0.038756 -0.184677 0.0725805 
-0.0423311 -0.174748 0.0765528 -0.0474809 -0.164639 0.0776434 -0.0526356 -0.154546 0.0786144 
-0.0579065 -0.144842 0.0767756 -0.0631208 -0.135153 0.0748917 -0.0656216 -0.126193 0.0708418 
-0.0681223 -0.117233 0.0667919 0.143753 0.131561 -0.00833645 0.139007 0.144895 -0.0278455 
0.121198 0.156427 -0.0504271 0.0979159 0.165165 -0.0719002 0.0622293 0.167571 -0.0908605 
0.0242633 0.165181 -0.106967 -0.019401 0.150799 -0.11594 -0.0615112 0.131525 -0.121727 
-0.0993171 0.0987045 -0.118692 -0.133133 0.0631338 -0.113516 -0.154647 0.0190829 -0.101736 
-0.171939 -0.025142 -0.0891358 -0.174642 -0.0699682 -0.0736997 -0.174319 -0.113184 -0.0582566 
-0.162196 -0.150117 -0.0427864 -0.148657 -0.1846 -0.0276155 -0.128824 -0.208191 -0.0137741 
-0.108958 -0.229422 -0.000261127 -0.0889218 -0.238561 0.0115685 -0.0696377 -0.246095 0.0231368 
-0.0548644 -0.243996 0.0331383 -0.0409857 -0.241121 0.0429302 -0.0335178 -0.23269 0.0512202 
-0.0267094 -0.224008 0.0593057 -0.0257052 -0.21311 0.0655915 -0.0250515 -0.202182 0.0716677 
-0.0283408 -0.190902 0.0753861 -0.0317552 -0.179651 0.0789234 -0.037087 -0.168849 0.0796839 
-0.0424306 -0.158078 0.0803295 -0.0480517 -0.148063 0.0782749 -0.0536133 -0.138066 0.076177 
-0.0563173 -0.128969 0.0719986 -0.0590212 -0.119872 0.0678203 0.157248 0.144528 -0.022863 
0.15102 0.159122 -0.044217 0.130196 0.172216 -0.0694173 0.102818 0.182405 -0.0936259 
0.0605834 0.186013 -0.115587 0.0153991 0.184095 -0.134078 -0.0371582 0.168363 -0.143894 
-0.0877885 0.146817 -0.149613 -0.133082 0.109167 -0.143987 -0.173289 0.0683282 -0.135747 
-0.197811 0.017657 -0.119443 -0.217018 -0.0331162 -0.102349 -0.217866 -0.0842421 -0.0825264 
-0.214963 -0.133378 -0.0629368 -0.197427 -0.174751 -0.0442554 -0.178179 -0.213097 -0.0261331 
-0.151321 -0.237984 -0.0104955 -0.124522 -0.259978 0.00461165 -0.0980191 -0.267142 0.0170002 
-0.0725603 -0.272457 0.0290132 -0.0533667 -0.266677 0.0387729 -0.0353388 -0.260139 0.0482815 
-0.0256645 -0.248171 0.0559912 -0.0168038 -0.236057 0.0634929 -0.0151026 -0.222658 0.0691644 
-0.0138127 -0.209314 0.0746352 -0.0171484 -0.196591 0.0778476 -0.0206266 -0.183942 0.0808883 
-0.0262898 -0.172435 0.0812955 -0.0319688 -0.160978 0.0815937 -0.0380204 -0.150672 0.0793293 
-0.0440083 -0.140389 0.0770237 -0.0469413 -0.13119 0.0727409 -0.0498744 -0.121992 0.068458 
0.173223 0.143836 -0.0426753 0.165829 0.1593 -0.0664964 0.14213 0.173929 -0.0955084 
0.110357 0.185713 -0.123834 0.06028 0.191048 -0.150604 0.00617286 0.190157 -0.172925 
-0.0580103 0.173701 -0.184119 -0.119797 0.150427 -0.189712 -0.174948 0.108273 -0.179791 
-0.223486 0.0624567 -0.166584 -0.251634 0.00535161 -0.143244 -0.273011 -0.0518574 -0.11927 
-0.270998 -0.109426 -0.0931024 -0.264269 -0.164676 -0.0675764 -0.239146 -0.210888 -0.0445533 
-0.211915 -0.253349 -0.0224931 -0.175315 -0.279136 -0.00471182 -0.138965 -0.301273 0.0122327 
-0.103889 -0.304705 0.0248895 -0.070355 -0.305986 0.0370129 -0.0460662 -0.294365 0.0459369 
-0.0233581 -0.28208 0.0545714 -0.0119785 -0.265037 0.0611316 -0.00160838 -0.248032 0.0674977 
-0.000121384 -0.231362 0.0721555 0.000903413 -0.214873 0.0766359 -0.0032711 -0.200427 0.0791207 
-0.00758865 -0.186116 0.0814517 -0.0140992 -0.173869 0.0814257 -0.0206199 -0.161693 0.0813005 
-0.027379 -0.15117 0.0788469 -0.0340665 -0.140674 0.0763556 -0.037318 -0.131494 0.0720508 
-0.0405696 -0.122314 0.067746 0.189192 0.138059 -0.0624379 0.180839 0.153726 -0.0889728 
0.15447 0.169171 -0.122225 0.118406 0.181893 -0.155165 0.0603664 0.188441 -0.187401 
-0.00290797 0.188246 -0.21408 -0.0792698 0.171193 -0.22687 -0.152763 0.146511 -0.232341 
-0.218313 0.100696 -0.217545 -0.275648 0.0508009 -0.198757 -0.307654 -0.0116789 -0.167662 
-0.331368 -0.0743603 -0.136135 -0.326433 -0.137738 -0.103116 -0.315716 -0.198585 -0.0711853 
-0.282446 -0.249559 -0.0434983 -0.246586 -0.296042 -0.0172252 -0.199211 -0.322566 0.00276419 
-0.15231 -0.344601 0.0215627 -0.10784 -0.343624 0.0342588 -0.0655125 -0.340197 0.0462494 
-0.0360322 -0.322071 0.0540074 -0.00860757 -0.303422 0.0614474 0.0040847 -0.281026 0.0666083 
0.0155664 -0.258879 0.0716004 0.0163948 -0.238929 0.0751063 0.0167212 -0.219294 0.0784644 
0.0114 -0.203208 0.0801598 0.00594357 -0.187317 0.0817222 -0.00158578 -0.174419 0.0812441 
-0.00911594 -0.161613 0.0806779 -0.0166645 -0.150948 0.0780395 -0.0241323 -0.140315 0.0753669 
-0.027727 -0.131215 0.0710565 -0.0313217 -0.122115 0.066746 0.205138 0.112448 -0.0820065 
0.196634 0.125724 -0.112218 0.168392 0.139178 -0.151379 0.128447 0.150274 -0.190876 
0.0619732 0.156024 -0.231134 -0.0114217 0.155233 -0.26424 -0.102118 0.138087 -0.279467 
-0.189462 0.113238 -0.284836 -0.267522 0.0670606 -0.262906 -0.335472 0.0165859 -0.236143 
-0.372245 -0.0471375 -0.194482 -0.398946 -0.111533 -0.152779 -0.390852 -0.178253 -0.110936 
-0.375513 -0.24267 -0.0707742 -0.331917 -0.298109 -0.0371663 -0.284907 -0.348256 -0.00560816 
-0.222723 -0.374883 0.0168406 -0.161374 -0.395854 0.0375576 -0.104307 -0.387836 0.0494004 
-0.0503849 -0.377075 0.060309 -0.0153375 -0.349853 0.0656135 0.0169458 -0.322433 0.0706096 
0.0294194 -0.293597 0.0733966 0.0404607 -0.265329 0.0760844 0.0388974 -0.242064 0.0778995 
0.0368356 -0.219277 0.0796208 0.0291669 -0.20187 0.0802865 0.0214034 -0.184722 0.0808501 
0.0121869 -0.171522 0.0798471 0.00299328 -0.158433 0.0787705 -0.00566457 -0.147921 0.075964 
-0.014228 -0.137445 0.0731279 -0.0182618 -0.128666 0.0688756 -0.0222957 -0.119886 0.0646233 
0.219311 0.082943 -0.10042 0.210657 0.0929578 -0.134114 0.180687 0.103334 -0.178902 
0.137101 0.111735 -0.224668 0.0626495 0.115663 -0.272652 -0.0203741 0.113549 -0.311935 
-0.124827 0.0963334 -0.329463 -0.225525 0.0717247 -0.334644 -0.31582 0.0266435 -0.305632 
-0.394258 -0.0228309 -0.270982 -0.436135 -0.0858511 -0.218944 -0.466229 -0.150117 -0.167216 
-0.455623 -0.218688 -0.116563 -0.436158 -0.285355 -0.0681302 -0.382144 -0.344598 -0.0283593 
-0.323693 -0.397824 0.00868864 -0.245517 -0.424303 0.0336349 -0.168576 -0.443952 0.0562274 
-0.0979601 -0.4286 0.0667576 -0.0316584 -0.410266 0.0761141 0.00875905 -0.37404 0.0784297 
0.0456413 -0.337982 0.0804747 0.0571879 -0.303136 0.0805806 0.0670975 -0.269177 0.0806758 
0.0626021 -0.243025 0.080676 0.0576334 -0.217504 0.0806434 0.0473408 -0.199077 0.0802409 
0.0370036 -0.180963 0.0797691 0.0259836 -0.167647 0.0782356 0.0150131 -0.154457 0.0766435 
0.00520546 -0.144211 0.0736754 -0.00449342 -0.134004 0.0706825 -0.00897488 -0.125616 0.0664994 
-0.0134564 -0.117227 0.0623162 0.2256 0.0361291 -0.113701 0.216802 0.0390185 -0.150017 
0.185746 0.0414851 -0.19917 0.139586 0.0424446 -0.249929 0.0591905 0.0399876 -0.304328 
-0.0312768 0.0333249 -0.348677 -0.146923 0.0161479 -0.367898 -0.258763 -0.00641954 -0.372507 
-0.360065 -0.0439142 -0.336651 -0.448432 -0.0853686 -0.294497 -0.496912 -0.139033 -0.232927 
-0.532209 -0.194972 -0.171843 -0.521963 -0.258771 -0.112438 -0.500575 -0.321819 -0.0555623 
-0.435736 -0.381933 -0.0085516 -0.364544 -0.435636 0.0348963 -0.265121 -0.46085 0.0625098 
-0.167499 -0.478031 0.0867866 -0.0791121 -0.454043 0.0939624 0.0030639 -0.427077 0.0996771 
0.0479756 -0.38225 0.0966248 0.0883027 -0.338143 0.0934638 0.0957738 -0.299198 0.0895237 
0.10148 -0.261459 0.0857442 0.0916502 -0.234325 0.0833787 0.0814685 -0.207927 0.0810721 
0.0673239 -0.189813 0.0794296 0.0532284 -0.172035 0.0777598 0.0398872 -0.159426 0.0756707 
0.0266358 -0.146945 0.0735404 0.0154985 -0.137464 0.0704397 0.00448722 -0.128019 0.0673193 
-0.000479549 -0.120337 0.0632547 -0.00544634 -0.112655 0.0591901 0.228928 -0.0114601 -0.125347 
0.219709 -0.0159074 -0.163637 0.187497 -0.0216275 -0.216075 0.138988 -0.028377 -0.270591 
0.0535386 -0.0374596 -0.329813 -0.0432309 -0.0487892 -0.377911 -0.168301 -0.0657362 -0.398197 
-0.289648 -0.0858854 -0.402068 -0.400681 -0.114902 -0.360481 -0.498052 -0.147298 -0.312013 
-0.553295 -0.190112 -0.242325 -0.594164 -0.236107 -0.173143 -0.585373 -0.29309 -0.105704 
-0.563068 -0.350453 -0.0409571 -0.488057 -0.409301 0.0132934 -0.404567 -0.461597 0.0631418 
-0.283395 -0.484776 0.093426 -0.164616 -0.499053 0.119305 -0.0581051 -0.46771 0.122609 
0.0401669 -0.433497 0.124175 0.0890071 -0.382068 0.115314 0.132207 -0.331848 0.106543 
0.134989 -0.290293 0.0984134 0.135915 -0.250196 0.0906293 0.120512 -0.222922 0.0858852 
0.104895 -0.196456 0.0812945 0.0868679 -0.179083 0.0784285 0.0689877 -0.162058 0.0755771 
0.0533549 -0.150371 0.0729492 0.0378526 -0.13881 0.070297 0.0254218 -0.130204 0.0670759 
0.0131337 -0.121632 0.0638402 0.00769871 -0.114715 0.0599027 0.00226367 -0.107798 0.0559651 
0.217074 -0.0630243 -0.128623 0.206014 -0.0758915 -0.165549 0.17229 -0.0912211 -0.215743 
0.122583 -0.107045 -0.267681 0.0366476 -0.123991 -0.323571 -0.0605734 -0.140591 -0.368672 
-0.186007 -0.156328 -0.386799 -0.308468 -0.172127 -0.389079 -0.422695 -0.188096 -0.347472 
-0.524334 -0.206109 -0.298777 -0.58716 -0.23042 -0.228223 -0.635495 -0.258181 -0.157392 
-0.633771 -0.297862 -0.0855998 -0.6157 -0.338962 -0.01591 -0.533868 -0.385594 0.0455806 
-0.440345 -0.42682 0.101833 -0.294856 -0.444015 0.134805 -0.152478 -0.453157 0.161868 
-0.0260326 -0.421029 0.158647 0.0894726 -0.386663 0.153468 0.139342 -0.338873 0.136539 
0.182485 -0.292461 0.120084 0.17743 -0.255932 0.10703 0.170624 -0.220772 0.0945743 
0.148419 -0.197668 0.0873874 0.126225 -0.175272 0.0804602 0.104162 -0.160844 0.0764548 
0.0823612 -0.146708 0.072506 0.0645888 -0.137047 0.0694244 0.0469891 -0.127488 0.0663348 
0.0334497 -0.12032 0.0630556 0.020068 -0.113178 0.0597664 0.0142522 -0.107329 0.056 
0.00843638 -0.10148 0.0522334 0.203145 -0.112558 -0.130602 0.190115 -0.133272 -0.165687 
0.154938 -0.157466 -0.212901 0.104308 -0.181593 -0.261459 0.0186513 -0.205573 -0.313061 
-0.0780627 -0.226751 -0.354392 -0.20242 -0.240929 -0.370042 -0.324578 -0.252184 -0.370698 
-0.440644 -0.255349 -0.329834 -0.545345 -0.259146 -0.281768 -0.615006 -0.264896 -0.211497 
-0.670214 -0.274098 -0.140144 -0.675498 -0.295228 -0.0650529 -0.661826 -0.318599 0.00856453 
-0.574218 -0.350709 0.0764344 -0.471895 -0.378814 0.138322 -0.304161 -0.389118 0.173626 
-0.14019 -0.392707 0.201619 0.0045051 -0.361871 0.19215 0.135753 -0.329494 0.180532 
0.186316 -0.287872 0.156014 0.229165 -0.247669 0.132338 0.216734 -0.217645 0.11469 
0.202663 -0.188823 0.097877 0.174162 -0.170577 0.0884155 0.145884 -0.152908 0.0793129 
0.120117 -0.14173 0.0742474 0.0947204 -0.130777 0.0692778 0.0749978 -0.123279 0.0657795 
0.0554865 -0.115855 0.0622885 0.0409439 -0.110188 0.0589679 0.0265724 -0.104539 0.0556419 
0.0204139 -0.0997865 0.0520535 0.0142553 -0.0950339 0.048465 0.176766 -0.149909 -0.124805 
0.160993 -0.175035 -0.155177 0.124709 -0.203617 -0.195005 0.0748044 -0.231421 -0.23537 
-0.00597694 -0.257462 -0.276951 -0.0964324 -0.279068 -0.309869 -0.211073 -0.289589 -0.321128 
-0.324424 -0.295144 -0.31997 -0.434204 -0.286952 -0.284421 -0.534733 -0.277542 -0.242126 
-0.606742 -0.26438 -0.179026 -0.665264 -0.25307 -0.113914 -0.677196 -0.248155 -0.041851 
-0.668915 -0.245007 0.0296041 -0.581801 -0.248753 0.098688 -0.478076 -0.251438 0.161603 
-0.300525 -0.249411 0.1971 -0.127009 -0.244926 0.224506 0.0258345 -0.22785 0.210444 
0.163879 -0.210315 0.194217 0.213126 -0.190032 0.164995 0.254258 -0.17044 0.136871 
0.23722 -0.155805 0.116612 0.21868 -0.141718 0.0973259 0.186925 -0.13246 0.0866001 
0.155518 -0.12346 0.0762885 0.128044 -0.117362 0.070638 0.100994 -0.11136 0.0651073 
0.0804572 -0.106845 0.0614138 0.0601495 -0.10236 0.0577379 0.0452356 -0.0985692 0.0544764 
0.030498 -0.0947849 0.0512127 0.0242248 -0.0913048 0.0478445 0.0179515 -0.0878246 0.0444762 
0.150042 -0.184599 -0.118478 0.131675 -0.213498 -0.144104 0.0945241 -0.245692 -0.176572 
0.0456106 -0.276411 -0.208824 -0.0299668 -0.303786 -0.240583 -0.113812 -0.325263 -0.265274 
-0.218327 -0.331993 -0.272293 -0.322383 -0.331922 -0.269423 -0.425169 -0.313019 -0.239171 
-0.52071 -0.291122 -0.202686 -0.593909 -0.259993 -0.146985 -0.654599 -0.229088 -0.0884642 
-0.672073 -0.198957 -0.0202006 -0.668463 -0.170079 0.0482209 -0.582625 -0.146092 0.117258 
-0.478761 -0.123933 0.180064 -0.294775 -0.109901 0.215175 -0.114982 -0.0976144 0.241658 
0.0433302 -0.0942762 0.223927 0.185886 -0.0915501 0.204033 0.233906 -0.092496 0.171164 
0.273533 -0.0934111 0.139587 0.253005 -0.0941052 0.117266 0.231084 -0.0946987 0.0960232 
0.196902 -0.0944076 0.0842632 0.163165 -0.0940566 0.0729619 0.134433 -0.0930308 0.0668212 
0.106167 -0.0919738 0.0608209 0.0850451 -0.0904384 0.0569718 0.0641665 -0.0888874 0.0531497 
0.0490005 -0.0869692 0.049963 0.0340145 -0.085045 0.0467771 0.0276679 -0.0828323 0.0436339 
0.0213213 -0.0806196 0.0404906 0.120847 -0.200226 -0.108348 0.100947 -0.228316 -0.128985 
0.0646468 -0.258556 -0.154289 0.0186373 -0.286732 -0.179002 -0.049381 -0.310233 -0.202377 
-0.124097 -0.327585 -0.220171 -0.215557 -0.329566 -0.224011 -0.306822 -0.324395 -0.220174 
-0.397547 -0.299415 -0.19508 -0.48224 -0.270187 -0.164701 -0.548334 -0.227859 -0.118028 
-0.602977 -0.183942 -0.0686027 -0.618066 -0.134534 -0.00966834 -0.613965 -0.0855774 0.0494749 
-0.53502 -0.0383801 0.109433 -0.440052 0.0045 0.163993 -0.273874 0.0281937 0.194559 
-0.111223 0.0463446 0.217719 0.0333512 0.0360885 0.202924 0.164046 0.0242425 0.18611 
0.211465 0.00285703 0.157176 0.251116 -0.0178193 0.129282 0.235103 -0.0334131 0.108833 
0.217594 -0.0482857 0.0893333 0.186919 -0.0568116 0.0781892 0.156563 -0.0649678 0.067469 
0.1298 -0.0689667 0.061518 0.103446 -0.0728075 0.0557035 0.0833877 -0.0742242 0.051983 
0.0635535 -0.07558 0.048292 0.0489896 -0.0755032 0.0452928 0.0345982 -0.0754078 0.0422959 
0.0284751 -0.074426 0.039412 0.022352 -0.0734442 0.0365281 0.0922128 -0.214126 -0.098213 
0.0709586 -0.241135 -0.114006 0.035679 -0.269151 -0.132401 -0.0073051 -0.294558 -0.149871 
-0.0677531 -0.314051 -0.165242 -0.133365 -0.32722 -0.176463 -0.211886 -0.32458 -0.177307 
-0.290426 -0.31453 -0.172595 -0.369022 -0.283958 -0.152501 -0.442722 -0.248009 -0.128067 
-0.501327 -0.195475 -0.0902534 -0.54956 -0.139698 -0.0498057 -0.56196 -0.0727152 -0.000258273 
-0.557192 -0.00548186 0.0495231 -0.485468 0.0627289 0.100217 -0.399838 0.124362 0.146368 
-0.252403 0.156759 0.172329 -0.107815 0.180194 0.192143 0.0221832 0.157693 0.180446 
0.140269 0.132686 0.166888 0.18688 0.0926351 0.142158 0.226407 0.053884 0.118207 
0.215164 0.0244471 0.0998346 0.202328 -0.00370535 0.082274 0.175478 -0.0205552 0.0718571 
0.148814 -0.0367483 0.0618247 0.124241 -0.045553 0.0561171 0.100018 -0.05408 0.0505405 
0.0811566 -0.0583481 0.0469729 0.0624977 -0.0625121 0.0434366 0.0486124 -0.0642263 0.0406343 
0.0348907 -0.06591 0.0378356 0.029019 -0.0661311 0.0352129 0.0231472 -0.0663523 0.0325902 
0.0685115 -0.212833 -0.0880377 0.0474789 -0.236364 -0.100255 0.0147151 -0.259788 -0.113999 
-0.0241756 -0.280423 -0.126815 -0.0769545 -0.294741 -0.137531 -0.133683 -0.303213 -0.14503 
-0.200285 -0.297071 -0.144486 -0.26669 -0.284095 -0.139713 -0.332549 -0.252195 -0.12323 
-0.393974 -0.214885 -0.103328 -0.441727 -0.16089 -0.0728862 -0.480341 -0.103395 -0.0403765 
-0.487378 -0.0338091 -0.000723197 -0.480404 0.03584 0.0389596 -0.418787 0.105734 0.0787576 
-0.346365 0.168791 0.115072 -0.225918 0.201467 0.135902 -0.107495 0.225075 0.152159 
0.00055106 0.202212 0.144976 0.0994462 0.176457 0.136226 0.143437 0.133354 0.118072 
0.181523 0.0913679 0.100365 0.177295 0.0573877 0.0858691 0.171435 0.0247487 0.0719633 
0.151206 0.00391163 0.0632537 0.130962 -0.0161783 0.0548477 0.110546 -0.027863 0.0498572 
0.0903708 -0.039214 0.0449763 0.0738778 -0.0454472 0.0417753 0.0575462 -0.051551 0.0386019 
0.0450109 -0.0546136 0.0360787 0.0326217 -0.0576379 0.033559 0.0272457 -0.0588166 0.0312135 
0.0218696 -0.0599953 0.0288679 0.0454309 -0.210846 -0.0780123 0.0247093 -0.230884 -0.0867726 
-0.00549205 -0.249746 -0.0960387 -0.0402871 -0.265668 -0.104386 -0.0854947 -0.274925 -0.110651 
-0.133473 -0.27883 -0.114599 -0.188378 -0.269354 -0.112754 -0.242869 -0.253642 -0.107956 
-0.296212 -0.220665 -0.0949838 -0.345579 -0.182305 -0.0794886 -0.382683 -0.127348 -0.0562152 
-0.411883 -0.0687129 -0.0314275 -0.413782 0.00263365 -0.00140866 -0.404766 0.0738384 0.0284496 
-0.353185 0.14449 0.0576813 -0.293805 0.208152 0.084456 -0.199762 0.240749 0.100311 
-0.106953 0.264312 0.11311 -0.0204601 0.241574 0.110245 0.059561 0.215612 0.106107 
0.100754 0.170296 0.0943215 0.13721 0.125894 0.0826704 0.139718 0.0880333 0.0719798 
0.14057 0.0515429 0.0616649 0.126843 0.0271077 0.0546565 0.112909 0.00349498 0.047872 
0.0966365 -0.010865 0.0436063 0.0804971 -0.0248414 0.0394285 0.0663914 -0.0329336 0.0366002 
0.0524057 -0.0408733 0.0337959 0.0412415 -0.0452278 0.0315539 0.0302058 -0.0495364 0.0293154 
0.0253352 -0.0516407 0.0272462 0.0204646 -0.0537449 0.0251771 0.0293326 -0.20104 -0.0696742 
0.00992802 -0.217423 -0.0763063 -0.017186 -0.232075 -0.083059 -0.0478587 -0.243927 -0.0890047 
-0.0865981 -0.24943 -0.0931212 -0.127325 -0.250237 -0.0954422 -0.173023 -0.239304 -0.0932745 
-0.21809 -0.222984 -0.0888708 -0.261414 -0.191748 -0.0782755 -0.301161 -0.155844 -0.0657704 
-0.329884 -0.105545 -0.0473766 -0.352 -0.0522555 -0.0278802 -0.351292 0.0113638 -0.00457491 
-0.342083 0.0744508 0.0185404 -0.299719 0.135462 0.0409148 -0.25151 0.1905 0.0614993 
-0.17732 0.218994 0.0741292 -0.103909 0.240043 0.0845746 -0.0344848 0.222936 0.0838248 
0.030223 0.202834 0.082078 0.0666349 0.164755 0.0743495 0.0993337 0.127142 0.0666271 
0.105421 0.0928615 0.058948 0.110015 0.0596652 0.051504 0.101458 0.0360083 0.0461287 
0.0925975 0.0130801 0.0409102 0.0803158 -0.0016521 0.0374556 0.0680813 -0.0160186 0.0340663 
0.0565703 -0.0247779 0.0316795 0.0451392 -0.0333841 0.0293111 0.0355847 -0.0383935 0.0273754 
0.0261383 -0.0433552 0.0254424 0.0218821 -0.0460242 0.0236407 0.0176259 -0.0486931 0.021839 
0.0136268 -0.19109 -0.0614624 -0.00443881 -0.20387 -0.0660259 -0.028478 -0.214394 -0.0703431 
-0.0550662 -0.222263 -0.0739648 -0.0874322 -0.224117 -0.07601 -0.121025 -0.221929 -0.0767671 
-0.157685 -0.209634 -0.0743034 -0.19351 -0.192797 -0.0702989 -0.227021 -0.163378 -0.0620278 
-0.25736 -0.130008 -0.0524424 -0.277917 -0.084455 -0.0388047 -0.293145 -0.0365964 -0.0244628 
-0.289967 0.0192264 -0.0076887 -0.280639 0.074147 0.00887036 -0.247325 0.125549 0.0245907 
-0.210059 0.171995 0.039167 -0.155224 0.19641 0.0486595 -0.100729 0.214952 0.0568091 
-0.0479787 0.203386 0.0580768 0.00175547 0.189066 0.0586186 0.0333928 0.158219 0.0548045 
0.0623173 0.127403 0.0508756 0.0717997 0.0968129 0.0461236 0.0799533 0.0670224 0.0414711 