# vtk DataFile Version 3.0
vtk output
ASCII
DATASET RECTILINEAR_GRID
FIELD FieldData 2
base_index 1 3 int
68 34 34 
avtOriginalBounds 1 6 double
3.33333 10 -3.33333 3.33333 -3.33333 3.33333 
DIMENSIONS 34 34 34
X_COORDINATES 34 float
3.33333 3.53535 3.73737 3.93939 4.14141 4.34343 4.54545 4.74747 4.94949 
5.15152 5.35354 5.55556 5.75758 5.9596 6.16162 6.36364 6.56566 6.76768 
6.9697 7.17172 7.37374 7.57576 7.77778 7.9798 8.18182 8.38384 8.58586 
8.78788 8.9899 9.19192 9.39394 9.59596 9.79798 10 
Y_COORDINATES 34 float
-3.33333 -3.13131 -2.92929 -2.72727 -2.52525 -2.32323 -2.12121 -1.91919 -1.71717 
-1.51515 -1.31313 -1.11111 -0.909091 -0.707071 -0.505051 -0.30303 -0.10101 0.10101 
0.30303 0.50505 0.70707 0.909091 1.11111 1.31313 1.51515 1.71717 1.91919 
2.12121 2.32323 2.52525 2.72727 2.92929 3.13131 3.33333 
Z_COORDINATES 34 float
-3.33333 -3.13131 -2.92929 -2.72727 -2.52525 -2.32323 -2.12121 -1.91919 -1.71717 
-1.51515 -1.31313 -1.11111 -0.909091 -0.707071 -0.505051 -0.30303 -0.10101 0.10101 
0.30303 0.50505 0.70707 0.909091 1.11111 1.31313 1.51515 1.71717 1.91919 
2.12121 2.32323 2.52525 2.72727 2.92929 3.13131 3.33333 
POINT_DATA 39304
FIELD FieldData 1
grad 3 39304 float
0.173357 0.0817892 0.115701 0.174632 0.0741569 0.113121 0.177121 0.0664398 0.11221 
0.179972 0.0581924 0.111914 0.183647 0.0487428 0.113013 0.186828 0.0385676 0.114496 
0.188776 0.0265786 0.116942 0.18875 0.0139525 0.119509 0.183256 -0.000437818 0.122412 
0.173854 -0.015057 0.125325 0.152399 -0.0303818 0.128273 0.125533 -0.0453679 0.131506 
0.0799688 -0.0591839 0.135727 0.0292842 -0.0727122 0.140793 -0.0413718 -0.0851182 0.149159 
-0.114355 -0.0988111 0.158699 -0.197683 -0.118223 0.173455 -0.278542 -0.141009 0.189015 
-0.346752 -0.181082 0.208695 -0.407415 -0.22407 0.22797 -0.422799 -0.284547 0.24481 
-0.429639 -0.343138 0.259492 -0.375249 -0.388214 0.258714 -0.317835 -0.427273 0.255067 
-0.233812 -0.413392 0.226177 -0.152037 -0.396164 0.19587 -0.095547 -0.341292 0.14964 
-0.0413301 -0.286531 0.103617 -0.0219694 -0.233464 0.0607747 -0.00326526 -0.181063 0.0185775 
8.08653e-06 -0.144352 -0.0084466 0.00321974 -0.107917 -0.0351213 0.0034707 -0.0847654 -0.0450323 
0.00372165 -0.0616137 -0.0549433 0.164582 0.0877411 0.108563 0.166271 0.080334 0.10823 
0.168561 0.0732375 0.109416 0.171053 0.0659619 0.111244 0.174006 0.0582803 0.114523 
0.176462 0.0504061 0.118248 0.177678 0.0420502 0.123089 0.177055 0.0337924 0.128098 
0.171343 0.0258064 0.133572 0.161897 0.0183971 0.13905 0.140936 0.012766 0.144537 
0.114491 0.00792961 0.150254 0.0691001 0.00583887 0.156762 0.0179382 0.0036457 0.16408 
-0.0557308 0.00105309 0.174557 -0.13281 -0.00398427 0.186306 -0.225049 -0.0198874 0.20371 
-0.315296 -0.0404102 0.222197 -0.395336 -0.0846098 0.246235 -0.466311 -0.132604 0.270099 
-0.482893 -0.203365 0.292922 -0.488194 -0.272222 0.313235 -0.412644 -0.327433 0.315555 
-0.333358 -0.375652 0.314152 -0.221192 -0.362328 0.279978 -0.112694 -0.345361 0.244018 
-0.0454629 -0.287412 0.187951 0.0184995 -0.22983 0.132212 0.0323361 -0.177884 0.0815054 
0.0453903 -0.12673 0.0315887 0.0400568 -0.0942264 0.000246508 0.0347593 -0.0620147 -0.0306931 
0.0311885 -0.0438132 -0.0423115 0.0276177 -0.0256116 -0.0539299 0.157284 0.0925289 0.101499 
0.159459 0.0860365 0.103032 0.161964 0.0800671 0.105963 0.164652 0.0741908 0.109549 
0.167757 0.0685253 0.11462 0.170506 0.0631089 0.120178 0.172367 0.0583153 0.126955 
0.172651 0.0542511 0.133925 0.168566 0.0522067 0.14143 0.160924 0.0515129 0.14892 
0.142315 0.0549839 0.156364 0.117905 0.059931 0.164002 0.0734564 0.0699776 0.17231 
0.0221338 0.0800424 0.181461 -0.0559988 0.0901783 0.193903 -0.138978 0.0971714 0.207819 
-0.243501 0.0901967 0.228286 -0.346583 0.0778099 0.250227 -0.44228 0.0376848 0.279726 
-0.527228 -0.00644002 0.309416 -0.547676 -0.0745639 0.340247 -0.553701 -0.141035 0.368251 
-0.45636 -0.195659 0.375998 -0.3545 -0.243888 0.378993 -0.212891 -0.235844 0.340174 
-0.0766073 -0.224593 0.299152 -0.000243184 -0.177272 0.233364 0.0718431 -0.130375 0.168048 
0.0783289 -0.0899817 0.10997 0.0839771 -0.0503089 0.0528081 0.0699413 -0.0275613 0.0171586 
0.0560469 -0.00506298 -0.0180494 0.04894 0.00547576 -0.0320757 0.041833 0.0160145 -0.046102 
0.150771 0.0966983 0.0944749 0.15347 0.0914868 0.0976722 0.156411 0.0869137 0.10216 
0.15959 0.0826636 0.107311 0.16331 0.079146 0.113966 0.166892 0.0762708 0.121139 
0.170132 0.075002 0.129608 0.172121 0.0750385 0.138284 0.170644 0.0786898 0.147532 
0.165788 0.084449 0.156743 0.150516 0.0967078 0.165834 0.128998 0.111244 0.175095 
0.0859011 0.133647 0.184943 0.0345861 0.15646 0.195705 -0.0487809 0.180873 0.210035 
-0.138618 0.201689 0.226094 -0.257218 0.206522 0.249844 -0.374965 0.205392 0.27552 
-0.488353 0.173698 0.311067 -0.589218 0.138157 0.347238 -0.614951 0.0795351 0.387152 
-0.622904 0.022172 0.423943 -0.503434 -0.0261684 0.438353 -0.378629 -0.0695497 0.446892 
-0.206884 -0.0692927 0.403765 -0.0422502 -0.0666554 0.357999 0.0423924 -0.0372427 0.28255 
0.121741 -0.00820436 0.20773 0.119905 0.0150916 0.142544 0.117215 0.0378469 0.078388 
0.094426 0.0478908 0.0384372 0.0718882 0.0577589 -0.0010411 0.0613967 0.0591937 -0.0178475 
0.0509052 0.0606285 -0.0346539 0.14631 0.10007 0.0875778 0.149521 0.096241 0.0919788 
0.15308 0.0930709 0.0975852 0.15703 0.090353 0.10385 0.161866 0.0886603 0.111607 
0.166899 0.087854 0.119891 0.172426 0.0892636 0.129494 0.177196 0.0923689 0.139308 
0.179868 0.10017 0.149702 0.179555 0.1107 0.160044 0.170035 0.129645 0.17022 
0.153894 0.151785 0.18055 0.114876 0.184965 0.191415 0.0659546 0.219407 0.203242 
-0.0215886 0.258773 0.218826 -0.1175 0.294425 0.236328 -0.250606 0.313572 0.262358 
-0.383013 0.326439 0.290607 -0.511842 0.307121 0.330227 -0.626523 0.284847 0.370684 
-0.656313 0.244833 0.416157 -0.666531 0.205738 0.458355 -0.536484 0.173225 0.47709 
-0.400797 0.143021 0.489469 -0.215483 0.133145 0.445921 -0.0380648 0.124287 0.399508 
0.0505248 0.126883 0.320873 0.133379 0.129339 0.242867 0.128285 0.129638 0.174518 
0.122322 0.129718 0.107205 0.095929 0.124625 0.0642366 0.0698327 0.119467 0.0217415 
0.0579575 0.111152 0.00196738 0.0460822 0.102837 -0.0178069 0.143042 0.102979 0.0807542 
0.146758 0.100591 0.0860917 0.15104 0.0988278 0.0925628 0.155923 0.0975875 0.099679 
0.162166 0.0975322 0.108257 0.169008 0.0985204 0.11736 0.17735 0.102117 0.127774 
0.185526 0.107692 0.138395 0.193243 0.118745 0.149589 0.198491 0.133069 0.16072 
0.196126 0.157479 0.171654 0.186804 0.186071 0.182733 0.153448 0.229111 0.194309 
0.108307 0.274532 0.206884 0.0172019 0.329244 0.223355 -0.0843272 0.38032 0.241894 
-0.23219 0.415236 0.269621 -0.379252 0.443692 0.299767 -0.522218 0.439041 0.342316 
-0.649493 0.432752 0.385784 -0.682629 0.416634 0.434768 -0.695309 0.401125 0.480411 
-0.561391 0.38998 0.502111 -0.421825 0.377792 0.517341 -0.232561 0.356421 0.47563 
-0.0513986 0.334395 0.430951 0.0386229 0.305001 0.352887 0.122802 0.275808 0.275364 
0.117389 0.249686 0.206144 0.111094 0.223747 0.137902 0.0840878 0.202105 0.0926611 
0.0573855 0.180529 0.047877 0.0452882 0.162088 0.0250261 0.0331908 0.143648 0.00217514 
0.141458 0.105325 0.0739408 0.1456 0.104191 0.0797916 0.150539 0.103542 0.0867196 
0.156306 0.103368 0.0942717 0.163949 0.104268 0.103238 0.172627 0.106174 0.112713 
0.183893 0.110592 0.123459 0.195692 0.116965 0.134405 0.208969 0.128749 0.145906 
0.220586 0.143887 0.157341 0.227084 0.169369 0.168573 0.226672 0.199471 0.179926 
0.202388 0.245534 0.191693 0.16427 0.294867 0.204421 0.0721977 0.356955 0.220894 
-0.0328316 0.415985 0.239461 -0.19545 0.461426 0.267335 -0.35671 0.500804 0.297647 
-0.511012 0.50911 0.340459 -0.648066 0.51692 0.384068 -0.681631 0.52176 0.432452 
-0.695499 0.526903 0.477637 -0.5682 0.534213 0.499885 -0.435873 0.538129 0.516209 
-0.259295 0.512176 0.480412 -0.0900698 0.484268 0.441728 -0.00356334 0.434379 0.37058 
0.0775753 0.384789 0.299715 0.0763972 0.339808 0.233195 0.0743437 0.295266 0.167501 
0.0517174 0.261073 0.12121 0.0293423 0.227043 0.0753387 0.0190197 0.200852 0.0496452 
0.00869705 0.174662 0.0239517 0.140941 0.107314 0.0671339 0.145457 0.107316 0.0732298 
0.151012 0.107596 0.0803567 0.157633 0.108227 0.0880814 0.166672 0.109652 0.0971613 
0.177202 0.11192 0.106725 0.19146 0.116294 0.117499 0.20702 0.122405 0.128465 
0.226183 0.133325 0.139961 0.244681 0.147391 0.151394 0.261124 0.171162 0.162633 
0.270946 0.199643 0.173959 0.257894 0.244399 0.185588 0.228854 0.293168 0.198092 
0.137457 0.357583 0.214006 0.0302685 0.419836 0.231963 -0.147106 0.472481 0.259001 
-0.322274 0.519825 0.288382 -0.486139 0.540005 0.329771 -0.631187 0.560722 0.371703 
-0.663335 0.584659 0.416884 -0.677582 0.608593 0.459137 -0.563546 0.632514 0.480401 
-0.445498 0.651325 0.496709 -0.292143 0.625167 0.469406 -0.144788 0.595994 0.439417 
-0.0649298 0.532887 0.379203 0.0104037 0.470028 0.318906 0.0163449 0.410976 0.257349 
0.0214281 0.352529 0.196404 0.00634532 0.308316 0.149836 -0.00857819 0.264343 0.10364 
-0.0158615 0.231907 0.0752525 -0.0231449 0.199471 0.0468647 0.14156 0.108938 0.0601838 
0.146214 0.109887 0.0661839 0.152028 0.110776 0.0732015 0.159081 0.111781 0.0808018 
0.168946 0.113045 0.0897229 0.180657 0.11482 0.099111 0.196981 0.117868 0.109666 
0.215226 0.122142 0.120412 0.23879 0.129811 0.131685 0.262578 0.139854 0.142905 
0.287054 0.157216 0.153966 0.305423 0.178353 0.165082 0.302697 0.212528 0.176388 
0.282529 0.250388 0.188449 0.194336 0.302616 0.203456 0.0880911 0.354286 0.220386 
-0.0983894 0.403475 0.245864 -0.282031 0.449903 0.273561 -0.451127 0.482175 0.312625 
-0.600459 0.515744 0.352099 -0.631204 0.557094 0.394027 -0.646003 0.59784 0.433461 
-0.546512 0.63426 0.455015 -0.444056 0.664997 0.472523 -0.315495 0.645723 0.454421 
-0.191732 0.622966 0.433781 -0.121946 0.561036 0.384588 -0.0557867 0.49911 0.334947 
-0.0452363 0.437254 0.278451 -0.0354323 0.375982 0.222357 -0.0431683 0.32844 0.175744 
-0.0508267 0.281159 0.129456 -0.0547671 0.246334 0.0987738 -0.0587076 0.211508 0.068091 
0.142963 0.110308 0.0531349 0.147592 0.112077 0.0588043 0.153418 0.113354 0.0655 
0.160613 0.114434 0.0727708 0.170912 0.115066 0.0813455 0.183341 0.115757 0.0903749 
0.20109 0.116593 0.100541 0.221279 0.117944 0.110902 0.24822 0.120717 0.1218 
0.276201 0.124701 0.132663 0.307389 0.132417 0.14342 0.333143 0.142261 0.154199 
0.340118 0.159459 0.165053 0.328681 0.179276 0.176521 0.245437 0.209307 0.190381 
0.142274 0.240872 0.205997 -0.049416 0.279255 0.229416 -0.237783 0.318639 0.254908 
-0.409122 0.363154 0.291025 -0.560178 0.409539 0.327502 -0.589534 0.46714 0.366144 
-0.605001 0.523331 0.402836 -0.520941 0.569415 0.42556 -0.434981 0.610031 0.445107 
-0.332297 0.602528 0.436692 -0.233314 0.591488 0.425853 -0.175963 0.540661 0.387741 
-0.1213 0.489462 0.348817 -0.107872 0.432572 0.297447 -0.0950132 0.376116 0.246276 
-0.095538 0.329862 0.199777 -0.0960601 0.283847 0.153559 -0.0964483 0.249293 0.120856 
-0.0968365 0.214739 0.088154 0.145236 0.111651 0.0457345 0.149426 0.114227 0.0507897 
0.15466 0.115742 0.0569529 0.161291 0.116675 0.0637193 0.171089 0.116288 0.0718534 
0.183126 0.115449 0.0804564 0.20076 0.113477 0.0902315 0.221013 0.111256 0.100219 
0.248516 0.10834 0.110795 0.277328 0.105394 0.121364 0.310173 0.102356 0.131913 
0.337974 0.0996485 0.14248 0.348354 0.0980792 0.153106 0.340858 0.0978422 0.164249 
0.263646 0.102802 0.177404 0.167064 0.111311 0.192116 -0.015611 0.135603 0.21375 
-0.194959 0.164723 0.237255 -0.357263 0.218593 0.270345 -0.500583 0.27489 0.303833 
-0.530006 0.345743 0.339705 -0.547585 0.414479 0.374157 -0.480276 0.468047 0.398437 
-0.41176 0.516527 0.420208 -0.332615 0.520222 0.4199 -0.256311 0.520579 0.417236 
-0.211976 0.483375 0.388055 -0.169553 0.445555 0.35778 -0.156432 0.3983 0.310737 
-0.143675 0.351312 0.263738 -0.139482 0.310622 0.217746 -0.135328 0.270123 0.172001 
-0.133038 0.2388 0.138092 -0.130747 0.207477 0.104183 0.148163 0.112972 0.0380703 
0.151602 0.116348 0.0422991 0.155791 0.117989 0.0477716 0.161328 0.118608 0.0539024 
0.169922 0.116912 0.0615254 0.180736 0.114208 0.069651 0.197101 0.108981 0.079033 
0.21601 0.1027 0.0886567 0.241964 0.0934994 0.0989498 0.269083 0.0829714 0.109273 
0.299791 0.0683501 0.119687 0.32564 0.0521444 0.130135 0.334701 0.0304653 0.140701 
0.327553 0.00866592 0.15172 0.257187 -0.0136027 0.164501 0.169809 -0.0303603 0.178617 
0.0068177 -0.0226245 0.198672 -0.153204 -0.00618279 0.220351 -0.298012 0.054878 0.250356 
-0.426502 0.118909 0.280859 -0.457086 0.200763 0.314349 -0.477856 0.27987 0.346937 
-0.428291 0.339287 0.373062 -0.377931 0.394118 0.397197 -0.32057 0.408583 0.403812 
-0.26537 0.420097 0.408102 -0.234488 0.398406 0.38624 -0.204858 0.375954 0.363063 
-0.194434 0.341833 0.319748 -0.184147 0.307803 0.276356 -0.177106 0.275883 0.231168 
-0.170121 0.244088 0.186199 -0.165808 0.218217 0.151693 -0.161495 0.192346 0.117187 
0.152167 0.114715 0.0296891 0.154293 0.119095 0.0327855 0.156678 0.120921 0.0374038 
0.160301 0.121252 0.0428011 0.166731 0.118194 0.0499641 0.175278 0.113627 0.0577021 
0.189116 0.105289 0.0668773 0.20526 0.0952952 0.0763337 0.227791 0.080715 0.0865686 
0.251129 0.0639658 0.0968648 0.276959 0.0405284 0.10735 0.298157 0.0144419 0.117888 
0.303352 -0.0207967 0.128606 0.294709 -0.0567807 0.139723 0.232102 -0.0956721 0.152396 
0.155637 -0.128041 0.16618 0.0175782 -0.131419 0.184901 -0.118022 -0.124364 0.20498 
-0.241027 -0.0638388 0.232018 -0.3509 -4.38593e-05 0.259598 -0.381977 0.0833715 0.290441 
-0.405213 0.163946 0.32075 -0.372245 0.224159 0.347234 -0.338697 0.280375 0.372114 
-0.30005 0.30142 0.382885 -0.262983 0.319973 0.391441 -0.243689 0.310495 0.37509 
-0.225143 0.300257 0.357342 -0.218058 0.278369 0.318173 -0.210934 0.256452 0.278846 
-0.202874 0.233861 0.235838 -0.19487 0.211332 0.193016 -0.18952 0.191752 0.159172 
-0.18417 0.172173 0.125327 0.157048 0.116801 0.0207235 0.157404 0.122353 0.0224386 
0.157367 0.124413 0.0260695 0.158407 0.124476 0.0306535 0.16189 0.120012 0.037398 
0.167318 0.113585 0.0448213 0.177606 0.102254 0.0539417 0.189829 0.0888284 0.0633909 
0.207407 0.0696058 0.0737505 0.225265 0.0477443 0.0841995 0.243983 0.0177462 0.0949238 
0.258331 -0.0152741 0.105719 0.257583 -0.0587349 0.116762 0.245946 -0.102892 0.128159 
0.191841 -0.149765 0.140942 0.127682 -0.189876 0.154607 0.0188313 -0.199934 0.172197 
-0.088197 -0.199584 0.190859 -0.185889 -0.14589 0.215024 -0.274057 -0.0888256 0.239734 
-0.305085 -0.0115407 0.267713 -0.330195 0.0632469 0.295405 -0.312889 0.120138 0.321036 
-0.29506 0.173694 0.345345 -0.272625 0.197905 0.358015 -0.251269 0.220143 0.368647 
-0.242045 0.220188 0.356335 -0.233188 0.219594 0.342653 -0.229967 0.209202 0.307971 
-0.226569 0.198712 0.273083 -0.218981 0.185904 0.233375 -0.211435 0.173099 0.193821 
-0.205851 0.160495 0.161662 -0.200268 0.14789 0.129503 0.16361 0.119598 0.0103944 
0.161488 0.126644 0.0102883 0.15815 0.129083 0.012766 0.155757 0.129 0.016483 
0.155506 0.123199 0.0230095 0.157106 0.115086 0.0303662 0.163337 0.101191 0.0397984 
0.171242 0.0850139 0.0496019 0.183782 0.0625168 0.0604333 0.196274 0.0373383 0.0713528 
0.208621 0.00389204 0.0825436 0.217075 -0.0323736 0.0937896 0.212084 -0.078379 0.105226 
0.198792 -0.124721 0.116947 0.15313 -0.172377 0.129775 0.10041 -0.213669 0.143272 
0.016325 -0.226683 0.159747 -0.0664784 -0.230368 0.177039 -0.142714 -0.186239 0.198519 
-0.212309 -0.138917 0.22048 -0.242068 -0.0724405 0.245332 -0.267513 -0.00793257 0.270016 
-0.262041 0.0424685 0.293505 -0.256098 0.0902335 0.315888 -0.246017 0.114802 0.328544 
-0.236614 0.137885 0.339404 -0.234833 0.144267 0.330047 -0.233155 0.150155 0.319437 
-0.233042 0.148484 0.289617 -0.232668 0.146685 0.259569 -0.226191 0.141867 0.224161 
-0.219737 0.137015 0.188873 -0.214461 0.130464 0.159314 -0.209185 0.123912 0.129754 
0.171658 0.123023 -0.00114114 0.166432 0.131849 -0.00345718 0.159017 0.134794 -0.00227947 
0.152438 0.134672 0.000523117 0.147755 0.127599 0.00700887 0.144903 0.117953 0.0145183 
0.146627 0.101875 0.0245868 0.149864 0.0835459 0.0350644 0.157288 0.0589842 0.0466746 
0.164517 0.0320767 0.0583456 0.171148 -0.00206411 0.0702042 0.174554 -0.0383121 0.0820707 
0.166824 -0.0818396 0.0939641 0.153064 -0.12507 0.106046 0.115789 -0.167139 0.118861 
0.0737439 -0.20381 0.132146 0.0104932 -0.216486 0.147523 -0.0519311 -0.221843 0.163485 
-0.110121 -0.189697 0.182444 -0.163915 -0.154782 0.201765 -0.191326 -0.103252 0.223256 
-0.215745 -0.0529985 0.24459 -0.21872 -0.0118891 0.264795 -0.221275 0.0273153 0.284056 
-0.220132 0.0497557 0.295003 -0.219355 0.0711723 0.304456 -0.222697 0.0810708 0.297095 
-0.225976 0.0906447 0.288677 -0.2283 0.0952392 0.264051 -0.230333 0.0997111 0.239197 
-0.225529 0.1013 0.208976 -0.220731 0.10283 0.178837 -0.21624 0.101517 0.152686 
-0.211748 0.100205 0.126535 0.182042 0.126726 -0.0150167 0.172823 0.137509 -0.020222 
0.160302 0.140976 -0.0205086 0.148635 0.140829 -0.0185999 0.138907 0.132491 -0.0117152 
0.131187 0.121424 -0.00356676 0.128489 0.103533 0.00774094 0.127343 0.0835753 0.0194606 
0.130494 0.0578934 0.0323211 0.13349 0.03033 0.045164 0.13601 -0.00303486 0.0579529 
0.135966 -0.0378005 0.0706598 0.127066 -0.0774053 0.0830839 0.113876 -0.116271 0.0955791 
0.0839567 -0.152257 0.108352 0.0508805 -0.183814 0.121411 0.00377298 -0.19569 0.135744 
-0.0428654 -0.202008 0.150457 -0.0871011 -0.179842 0.167114 -0.128569 -0.155365 0.184002 
-0.153432 -0.117015 0.202284 -0.176299 -0.0793941 0.220389 -0.184862 -0.046997 0.237229 
-0.193058 -0.0158926 0.253264 -0.19803 0.00383703 0.262218 -0.203144 0.0229092 0.269961 
-0.209849 0.0345849 0.264075 -0.21639 0.0460679 0.257325 -0.220405 0.0545957 0.237331 
-0.224125 0.0630165 0.217122 -0.220905 0.0689243 0.191853 -0.217678 0.0747622 0.166638 
-0.214048 0.0772432 0.143974 -0.210418 0.0797242 0.121311 0.194668 0.130695 -0.0311386 
0.180603 0.143604 -0.0398853 0.161988 0.147609 -0.041794 0.144368 0.147451 -0.0407595 
0.129004 0.137857 -0.0330538 0.116018 0.125476 -0.0237995 0.108979 0.106128 -0.0106739 
0.103725 0.0850423 0.00283325 0.103412 0.0591467 0.0173966 0.103164 0.0319576 0.0318149 
0.103114 0.000780402 0.0457859 0.101153 -0.0310967 0.0595448 0.0925901 -0.0653916 0.0725707 
0.0809674 -0.0986923 0.0855303 0.0574116 -0.128116 0.0982316 0.031668 -0.154087 0.111051 
-0.00380002 -0.16472 0.124393 -0.0390622 -0.171313 0.137934 -0.0732701 -0.157207 0.152497 
-0.105751 -0.141277 0.167154 -0.127873 -0.114411 0.182371 -0.148683 -0.087866 0.197365 
-0.160088 -0.0636251 0.210761 -0.171185 -0.0401784 0.223472 -0.179561 -0.0237194 0.23016 
-0.187938 -0.00764209 0.235901 -0.196319 0.00414051 0.230989 -0.204493 0.0158276 0.225404 
-0.209483 0.0260495 0.209502 -0.2142 0.0361897 0.19341 -0.212479 0.0444118 0.172872 
-0.210739 0.0525658 0.152362 -0.208044 0.0574541 0.133262 -0.205348 0.0623424 0.114161 
0.209605 0.132978 -0.0504758 0.189728 0.147591 -0.0636575 0.163974 0.151855 -0.0672477 
0.139556 0.151522 -0.0668895 0.118168 0.140765 -0.0575814 0.099762 0.127276 -0.0464291 
0.0888116 0.10696 -0.0306666 0.0800234 0.0852837 -0.0146343 0.0772237 0.0598391 0.0021446 
0.0747532 0.0336336 0.018585 0.0732977 0.00508206 0.0339815 0.0704651 -0.0236316 0.0490011 
0.0628753 -0.0529055 0.0627191 0.0531217 -0.0810695 0.0762247 0.0349293 -0.104905 0.0889028 
0.0152136 -0.126093 0.101543 -0.0112727 -0.135514 0.114015 -0.0377591 -0.14206 0.126531 
-0.0642458 -0.133873 0.139265 -0.0897516 -0.124272 0.151973 -0.109373 -0.106194 0.164523 
-0.128179 -0.0881616 0.176814 -0.14115 -0.0704539 0.187247 -0.153863 -0.0531745 0.1971 
-0.164307 -0.0396634 0.201855 -0.174659 -0.0263376 0.205879 -0.183972 -0.0150975 0.201688 
-0.193059 -0.00388707 0.196981 -0.198659 0.00686565 0.184379 -0.204011 0.0175586 0.171614 
-0.203526 0.0268463 0.155052 -0.203012 0.0360719 0.138503 -0.201133 0.0423214 0.122554 
-0.199253 0.0485709 0.106604 0.226949 0.133507 -0.0731623 0.200256 0.149381 -0.0917097 
0.166271 0.153616 -0.0970434 0.134175 0.152935 -0.0971553 0.10636 0.141111 -0.0854309 
0.0823741 0.12673 -0.0715555 0.0679593 0.105957 -0.0523029 0.0562357 0.0842484 -0.032977 
0.0519653 0.0599473 -0.0134486 0.048337 0.03536 0.00547916 0.0466889 0.0098904 0.0225546 
0.0440741 -0.0153736 0.0390527 0.03812 -0.0399272 0.0535566 0.0305501 -0.0634011 0.0676933 
0.016679 -0.0826643 0.080398 0.00163212 -0.0999033 0.0929235 -0.018641 -0.108146 0.104653 
-0.0390602 -0.114309 0.116293 -0.0602286 -0.109811 0.127474 -0.0808543 -0.104228 0.138529 
-0.0982249 -0.092131 0.148826 -0.115085 -0.07994 0.158838 -0.128291 -0.067075 0.16681 
-0.141283 -0.0544106 0.174291 -0.152402 -0.0435112 0.177458 -0.163387 -0.0326834 0.180063 
-0.172858 -0.022662 0.176329 -0.182106 -0.0126375 0.172203 -0.187936 -0.00256564 0.162075 
-0.193547 0.00746466 0.151814 -0.194023 0.0165172 0.138444 -0.194465 0.025518 0.125077 
-0.193277 0.0320391 0.111851 -0.19209 0.0385602 0.0986243 0.244748 0.129042 -0.0979515 
0.210802 0.144762 -0.122486 0.168204 0.148449 -0.12937 0.128216 0.147249 -0.129565 
0.0941449 0.134971 -0.114597 0.064879 0.120426 -0.0972382 0.0476258 0.100209 -0.0739055 
0.0336193 0.0794256 -0.0507921 0.028604 0.0570722 -0.0282863 0.024504 0.0347793 -0.00668639 
0.0232263 0.0126735 0.01212 0.0212863 -0.00899459 0.0301396 0.0170579 -0.0291504 0.0454409 
0.0115998 -0.0483063 0.0602263 0.00134605 -0.0635623 0.0729998 -0.00985125 -0.0772962 0.0854675 
-0.0252424 -0.0842656 0.0965766 -0.040896 -0.0897636 0.107483 -0.0578959 -0.0877204 0.11735 
-0.0746716 -0.0848585 0.127009 -0.0901025 -0.0770844 0.135417 -0.105246 -0.0691387 0.143522 
-0.118328 -0.0599628 0.149459 -0.131236 -0.0508369 0.15498 -0.142611 -0.0421501 0.156838 
-0.153827 -0.0334625 0.158263 -0.163262 -0.0247677 0.154832 -0.172483 -0.0160513 0.151107 
-0.178431 -0.00700522 0.142884 -0.184187 0.00201268 0.134556 -0.185429 0.0103669 0.123737 
-0.186633 0.0186791 0.112915 -0.186014 0.0249765 0.101955 -0.185394 0.0312739 0.0909958 
0.263064 0.118932 -0.125118 0.22137 0.1329 -0.156341 0.169724 0.13545 -0.164558 
0.121603 0.133535 -0.164399 0.0814685 0.121499 -0.14525 0.0472628 0.107612 -0.12355 
0.0278789 0.0890968 -0.0954699 0.0123271 0.0703214 -0.0680106 0.00738726 0.0508246 -0.0422699 
0.0035909 0.0315907 -0.017789 0.00332026 0.0131672 0.00280719 0.00257143 -0.00473983 0.0223967 
0.000170686 -0.0208624 0.0385085 -0.00325688 -0.0361206 0.0539628 -0.0106891 -0.0480083 0.0668525 
-0.0189628 -0.058739 0.0793268 -0.0309767 -0.0643277 0.0899543 -0.0433362 -0.068843 0.100287 
-0.0574675 -0.0678573 0.109111 -0.0715575 -0.0662517 0.117665 -0.0854002 -0.0609262 0.124594 
-0.0990854 -0.0554212 0.131211 -0.111641 -0.0486304 0.135598 -0.124054 -0.0418259 0.139625 
-0.135209 -0.0349006 0.140484 -0.146202 -0.027949 0.141004 -0.155382 -0.0207025 0.1377 
-0.164364 -0.0134324 0.134173 -0.170304 -0.00580199 0.127214 -0.176074 0.00180818 0.120172 
-0.177862 0.0089405 0.111179 -0.179611 0.0160398 0.102181 -0.179419 0.0215534 0.0929731 
-0.179227 0.0270671 0.0837648 0.277673 0.102723 -0.148619 0.229365 0.113049 -0.185737 
0.170068 0.113961 -0.194952 0.115121 0.111289 -0.194305 0.0700342 0.100494 -0.1713 
0.0318468 0.0883298 -0.145659 0.010908 0.0727448 -0.113429 -0.00571454 0.0570884 -0.0821939 
-0.0103838 0.0412345 -0.0537156 -0.0137318 0.0257146 -0.0268026 -0.0130059 0.0112244 -0.00471598 
-0.0126225 -0.00275858 0.0161806 -0.0134228 -0.0149894 0.0329663 -0.0151063 -0.0265077 0.048977 
-0.0202346 -0.0352472 0.0619653 -0.0261383 -0.0431341 0.0744457 -0.0354887 -0.0472319 0.0846688 
-0.0452524 -0.0505739 0.0945192 -0.0571346 -0.050043 0.10246 -0.0691125 -0.0490607 0.110076 
-0.0816657 -0.0453703 0.11575 -0.0941587 -0.0415157 0.121105 -0.106221 -0.0364841 0.12417 
-0.118167 -0.0314082 0.126921 -0.129083 -0.0259424 0.126899 -0.139839 -0.020442 0.126609 
-0.148794 -0.0145522 0.123315 -0.157565 -0.00864263 0.119853 -0.163501 -0.00242925 0.113821 
-0.169286 0.00376854 0.107725 -0.171524 0.00959898 0.100154 -0.173719 0.0154037 0.0925781 
-0.173877 0.0199749 0.084794 -0.174035 0.0245462 0.0770098 0.287735 0.079029 -0.167623 
0.234203 0.0833909 -0.209661 0.168966 0.0820506 -0.219462 0.108799 0.0785713 -0.218162 
0.0601241 0.0702437 -0.191699 0.0191311 0.0611104 -0.162611 -0.00265613 0.0499626 -0.126963 
-0.0197668 0.0387886 -0.0926519 -0.0239262 0.0275422 -0.0620464 -0.0266483 0.0165402 -0.0332522 
-0.0249384 0.00629149 -0.0100428 -0.0234953 -0.00356754 0.0118382 -0.0229739 -0.0120803 0.0291302 
-0.023265 -0.020052 0.0455596 -0.0267245 -0.0259136 0.0586245 -0.0309376 -0.0311525 0.0711106 
-0.0385007 -0.0336241 0.0810239 -0.0465257 -0.035559 0.0905028 -0.0569188 -0.034743 0.0977559 
-0.0674886 -0.0336073 0.104643 -0.0791188 -0.0305537 0.109336 -0.0907465 -0.0273792 0.113703 
-0.102356 -0.0233388 0.115729 -0.113869 -0.019264 0.117471 -0.124524 -0.0148872 0.11671 
-0.135025 -0.0104885 0.11573 -0.143791 -0.00584304 0.1123 -0.152384 -0.00118848 0.108743 
-0.158324 0.00360606 0.103222 -0.164126 0.00838577 0.0976557 -0.166692 0.0128162 0.09101 
-0.169214 0.0172263 0.084362 -0.169626 0.0206603 0.0776004 -0.170038 0.0240944 0.0708389 
0.290336 0.0538516 -0.1768 0.234256 0.0514772 -0.221252 0.166132 0.0476407 -0.231397 
0.103417 0.0432676 -0.229864 0.0529596 0.037678 -0.20186 0.0105562 0.0318556 -0.171223 
-0.011712 0.0254507 -0.134002 -0.0291124 0.0190154 -0.0982663 -0.0330321 0.0124957 -0.0666446 
-0.035423 0.00608277 -0.0369445 -0.0331005 -9.86096e-07 -0.0131699 -0.0309681 -0.00583762 0.00920845 
-0.0294926 -0.0108205 0.0267633 -0.0287658 -0.0154267 0.0434029 -0.030959 -0.0185636 0.0564729 
-0.0338892 -0.0212731 0.068911 -0.0400947 -0.022083 0.0785399 -0.0468026 -0.022537 0.0876815 
-0.0560852 -0.0211675 0.0943255 -0.0656087 -0.0195931 0.100564 -0.0765778 -0.0167898 0.104373 
-0.0875897 -0.0139145 0.107846 -0.0989091 -0.0105231 0.108909 -0.110147 -0.00711913 0.109712 
-0.120667 -0.00360403 0.108218 -0.131038 -8.66673e-05 0.106547 -0.139728 0.00345611 0.102884 
-0.148255 0.00699432 0.0991267 -0.154259 0.0104623 0.0939278 -0.160136 0.013914 0.0886986 
-0.163004 0.0169827 0.0827576 -0.165825 0.0200351 0.0768169 -0.166453 0.0223061 0.0708894 
-0.16708 0.024577 0.0649619 0.282989 0.0266962 -0.172874 0.227928 0.0165554 -0.216399 
0.160989 0.00989826 -0.226566 0.0992867 0.0045163 -0.225359 0.0494559 0.00202486 -0.19837 
0.0075025 -0.000113079 -0.168712 -0.0147568 -0.00136723 -0.132381 -0.0321825 -0.00272222 -0.0974224 
-0.0362223 -0.00435643 -0.0662658 -0.0386752 -0.00608533 -0.0369606 -0.0362352 -0.00810616 -0.0133641 
-0.0339076 -0.0100559 0.00886224 -0.0319679 -0.0117598 0.0263553 -0.0307228 -0.0132418 0.0429273 
-0.0321863 -0.0138586 0.055907 -0.0343768 -0.0141969 0.0682254 -0.039798 -0.0132976 0.077604 
-0.0457508 -0.0121726 0.0864538 -0.0544278 -0.00989151 0.0925929 -0.0633876 -0.00749796 0.0982911 
-0.0740446 -0.00442971 0.101344 -0.0847736 -0.00134553 0.104048 -0.0960186 0.0018529 0.10425 
-0.107193 0.00502662 0.104206 -0.117747 0.00798302 0.101989 -0.128154 0.0109127 0.0996253 
-0.13692 0.0135418 0.0955984 -0.145526 0.0161486 0.0915039 -0.151678 0.018413 0.0863727 
-0.157706 0.0206567 0.0812252 -0.160839 0.022415 0.075694 -0.163924 0.0241592 0.0701667 
-0.164716 0.0252323 0.0648218 -0.165509 0.0263055 0.0594769 0.269036 0.00379278 -0.162134 
0.217217 -0.0130355 -0.202648 0.153967 -0.0223342 -0.212461 0.0954869 -0.0288428 -0.21171 
0.0478158 -0.0290273 -0.187013 0.00751595 -0.0283122 -0.159638 -0.0143548 -0.0253485 -0.125566 
-0.0315765 -0.0224978 -0.0926282 -0.0359233 -0.0199598 -0.0628282 -0.0386533 -0.0176666 -0.0347083 
-0.0363979 -0.0161281 -0.0117689 -0.034172 -0.0146615 0.00988278 -0.0320479 -0.0134431 0.0270863 
-0.0305596 -0.0121293 0.0433917 -0.0315509 -0.0104436 0.0561943 -0.0332571 -0.00859839 0.0683195 
-0.0381412 -0.0060441 0.0774343 -0.0435831 -0.00336816 0.0859831 -0.0518833 -6.86528e-05 0.0916307 
-0.0605044 0.00326589 0.0968007 -0.0710509 0.00681065 0.0991059 -0.081696 0.0103181 0.101046 
-0.0930484 0.0135586 0.100371 -0.10434 0.0167334 0.099461 -0.115101 0.0193311 0.0964779 
-0.125718 0.0218687 0.0933739 -0.134715 0.0237298 0.0889098 -0.143553 0.0255475 0.0844034 
-0.149955 0.0266995 0.0792476 -0.156235 0.0278244 0.0740893 -0.159656 0.0283112 0.068875 
-0.163027 0.0287854 0.0636684 -0.163975 0.0286548 0.0588309 -0.164923 0.0285241 0.0539934 
0.245504 -0.0129451 -0.141517 0.200151 -0.0348966 -0.175997 0.144224 -0.0465771 -0.184911 
0.0921659 -0.0543834 -0.184803 0.0488777 -0.0534079 -0.164248 0.0119769 -0.0510457 -0.141044 
-0.00895501 -0.0452167 -0.111221 -0.0256402 -0.0394284 -0.0821061 -0.030565 -0.0337524 -0.0549553 
-0.0338838 -0.028397 -0.0291669 -0.032251 -0.0240294 -0.00757923 -0.0305575 -0.0198289 0.0128851 
-0.0286545 -0.0162053 0.0294691 -0.027322 -0.0125717 0.0452194 -0.0282143 -0.00889918 0.0577187 
-0.0298069 -0.00514254 0.0695442 -0.0345122 -0.00101204 0.0783757 -0.0397971 0.00317432 0.0866102 
-0.0480526 0.00764714 0.0917855 -0.0566612 0.0120993 0.0964454 -0.0673892 0.0164273 0.0980136 
-0.0782391 0.0206691 0.0991969 -0.0899625 0.0242922 0.097623 -0.101635 0.0278037 0.0958204 
-0.112855 0.0303328 0.0920059 -0.123931 0.032762 0.088094 -0.133384 0.0340663 0.0830865 
-0.142674 0.0353012 0.0780603 -0.149477 0.035473 0.0727458 -0.156154 0.0356081 0.0674428 
-0.159898 0.0348802 0.0624106 -0.163588 0.0341398 0.0573906 -0.164677 0.0327965 0.0529514 
-0.165766 0.0314533 0.0485122 0.219724 -0.0249848 -0.120735 0.181291 -0.0503356 -0.148917 
0.133258 -0.0638446 -0.156591 0.0881968 -0.0727993 -0.15681 0.0498695 -0.0714301 -0.140131 
0.0168965 -0.0682876 -0.120923 -0.00269011 -0.0607117 -0.0953919 -0.0184969 -0.0530537 -0.0701864 
-0.0238361 -0.0451686 -0.0458838 -0.0276197 -0.0376128 -0.0226238 -0.0266066 -0.0310721 -0.00257865 
-0.025457 -0.0247456 0.0165203 -0.0238361 -0.0191591 0.0323502 -0.0227235 -0.0136134 0.0474216 
-0.0235937 -0.00822717 0.0595347 -0.0251502 -0.00280309 0.0709833 -0.0297574 0.00278918 0.0794792 
-0.0349675 0.0083967 0.0873482 -0.0432682 0.0140825 0.0920052 -0.051958 0.0197098 0.0961076 
-0.0629827 0.0249861 0.0968819 -0.0741577 0.0301347 0.0972507 -0.0864097 0.0343684 0.0947127 
-0.0986237 0.038443 0.0919539 -0.110503 0.0411166 0.0872525 -0.122237 0.0436443 0.0824792 