# vtk DataFile Version 2.0
vtk output
ASCII
DATASET RECTILINEAR_GRID
DIMENSIONS 34 34 34
X_COORDINATES 34 float
-10 -9.79798 -9.59596 -9.39394 -9.19192 -8.9899 -8.78788 -8.58586 -8.38384 
-8.18182 -7.9798 -7.77778 -7.57576 -7.37374 -7.17172 -6.9697 -6.76768 -6.56566 
-6.36364 -6.16162 -5.9596 -5.75758 -5.55556 -5.35354 -5.15152 -4.9495 -4.74747 
-4.54545 -4.34343 -4.14141 -3.93939 -3.73737 -3.53535 -3.33333 
Y_COORDINATES 34 float
-10 -9.79798 -9.59596 -9.39394 -9.19192 -8.9899 -8.78788 -8.58586 -8.38384 
-8.18182 -7.9798 -7.77778 -7.57576 -7.37374 -7.17172 -6.9697 -6.76768 -6.56566 
-6.36364 -6.16162 -5.9596 -5.75758 -5.55556 -5.35354 -5.15152 -4.9495 -4.74747 
-4.54545 -4.34343 -4.14141 -3.93939 -3.73737 -3.53535 -3.33333 
Z_COORDINATES 34 float
-10 -9.79798 -9.59596 -9.39394 -9.19192 -8.9899 -8.78788 -8.58586 -8.38384 
-8.18182 -7.9798 -7.77778 -7.57576 -7.37374 -7.17172 -6.9697 -6.76768 -6.56566 
-6.36364 -6.16162 -5.9596 -5.75758 -5.55556 -5.35354 -5.15152 -4.9495 -4.74747 
-4.54545 -4.34343 -4.14141 -3.93939 -3.73737 -3.53535 -3.33333 
POINT_DATA 39304
VECTORS grad float
0.016422 0.036377 0.0279858 0.015976 0.036983 0.0281561 0.01553 0.0375891 0.0283264 
0.0145672 0.0381945 0.028396 0.0135936 0.0387998 0.0284635 0.0124527 0.0394151 0.0283766 
0.0113047 0.0400307 0.0282831 0.00999361 0.0406746 0.0279366 0.00867189 0.0413203 0.0275737 
0.00729274 0.0420245 0.026784 0.00590848 0.042734 0.0259564 0.00484364 0.0435362 0.0244462 
0.00381511 0.0443489 0.0228585 0.00388826 0.0452476 0.0204793 0.00411512 0.0461584 0.0179896 
0.00607641 0.0470036 0.0155969 0.00832677 0.0478379 0.0132204 0.0115178 0.0483497 0.0129556 
0.0148924 0.0487986 0.0131029 0.0173666 0.0489215 0.0153901 0.0196383 0.0489711 0.0181587 
0.02023 0.0489416 0.0210966 0.0203909 0.048892 0.0240779 0.0194687 0.0489026 0.02636 
0.018233 0.0489307 0.0284397 0.0166319 0.0490165 0.0299156 0.0149124 0.0491211 0.0311956 
0.0131585 0.0492404 0.0320931 0.0113923 0.049365 0.0328526 0.00968115 0.0494651 0.033366 
0.00799208 0.0495555 0.0337809 0.00636737 0.0495915 0.0340144 0.00477106 0.0496034 0.0341679 
0.00323626 0.0495397 0.0341671 0.0170281 0.0366887 0.0287233 0.0165819 0.0373217 0.0289122 
0.0161358 0.0379547 0.0291011 0.0151752 0.0385953 0.0291905 0.014204 0.039236 0.0292778 
0.0130728 0.0398997 0.0292145 0.0119348 0.0405644 0.0291446 0.0106461 0.0412787 0.0288312 
0.00934759 0.0419961 0.028502 0.00800827 0.0428038 0.0277682 0.00666534 0.0436196 0.0269985 
0.00564946 0.0445683 0.0255967 0.00467075 0.0455322 0.0241231 0.00475468 0.0466098 0.0219447 
0.00498689 0.0477032 0.0196679 0.00685097 0.0486981 0.0175237 0.00898702 0.0496765 0.0154015 
0.0119969 0.0502196 0.0152079 0.0151773 0.0506777 0.0153907 0.0175151 0.0506972 0.0175253 
0.0196634 0.0506179 0.0200992 0.0202257 0.0504256 0.0228691 0.0203813 0.0502044 0.0256894 
0.0194875 0.0500671 0.0278896 0.01829 0.0499543 0.0299104 0.0167163 0.049934 0.0313723 
0.0150206 0.0499438 0.0326529 0.0132705 0.0499951 0.0335692 0.0115008 0.0500614 0.034354 
0.00976873 0.0501202 0.0348968 0.00805177 0.050176 0.0353428 0.00638578 0.0501872 0.0356039 
0.00474227 0.0501787 0.0357834 0.00315062 0.0500997 0.0357997 0.0176342 0.0370004 0.0294609 
0.0171878 0.0376604 0.0296683 0.0167415 0.0383203 0.0298757 0.0157833 0.0389961 0.029985 
0.0148144 0.0396721 0.0300922 0.0136929 0.0403844 0.0300523 0.0125648 0.0410982 0.0300062 
0.0112986 0.0418827 0.0297259 0.0100233 0.0426719 0.0294303 0.00872381 0.0435831 0.0287524 
0.0074222 0.0445052 0.0280406 0.00645527 0.0456005 0.0267472 0.00552638 0.0467156 0.0253877 
0.0056211 0.0479719 0.0234101 0.00585865 0.049248 0.0213462 0.00762552 0.0503925 0.0194504 
0.00964728 0.0515152 0.0175826 0.012476 0.0520895 0.0174602 0.0154622 0.0525569 0.0176784 
0.0176637 0.0524729 0.0196606 0.0196885 0.0522648 0.0220396 0.0202214 0.0519096 0.0246417 
0.0203717 0.0515167 0.0273009 0.0195063 0.0512317 0.0294193 0.0183469 0.0509778 0.0313812 
0.0168006 0.0508515 0.032829 0.0151289 0.0507664 0.0341102 0.0133825 0.0507498 0.0350453 
0.0116093 0.0507579 0.0358553 0.00985631 0.0507753 0.0364276 0.00811147 0.0507965 0.0369048 
0.00640419 0.050783 0.0371934 0.00471349 0.0507541 0.0373989 0.00306499 0.0506597 0.0374323 
0.018347 0.0376107 0.0302589 0.0179086 0.0383198 0.0304906 0.0174703 0.0390288 0.0307223 
0.0165358 0.0397659 0.0308605 0.015591 0.0405036 0.0309968 0.0145142 0.0412962 0.0309971 
0.0134318 0.0420911 0.0309916 0.0122428 0.0429844 0.0307769 0.0110467 0.043884 0.0305486 
0.00986317 0.0449417 0.0299938 0.00868072 0.0460134 0.0294101 0.00783784 0.0472939 0.0283583 
0.00703355 0.0485982 0.0272533 0.0071422 0.0500515 0.025698 0.00737823 0.0515256 0.0240797 
0.0089013 0.0528158 0.0226622 0.0106389 0.0540753 0.021278 0.013035 0.0546816 0.021272 
0.0155595 0.0551605 0.0215349 0.0174309 0.0549845 0.0231878 0.0191552 0.0546612 0.0251534 
0.0196131 0.0541401 0.0273591 0.0197461 0.0535684 0.0296263 0.0189648 0.0531112 0.031504 
0.0179189 0.0526871 0.0332689 0.0164796 0.052422 0.034621 0.0149127 0.0522083 0.0358391 
0.0132349 0.0520943 0.0367581 0.0115171 0.0520162 0.0375692 0.00978658 0.0519703 0.0381602 
0.00805092 0.0519371 0.0386631 0.00632848 0.0518836 0.0389797 0.00461187 0.0518211 0.039214 
0.00292065 0.0517012 0.0392691 0.0190619 0.0382272 0.0310581 0.0186318 0.0389858 0.0313143 
0.0182017 0.0397445 0.0315704 0.0172914 0.0405435 0.0317378 0.0163711 0.0413433 0.0319033 
0.0153398 0.0422169 0.0319441 0.0143038 0.0430936 0.0319796 0.013193 0.0440963 0.0318312 
0.0120774 0.0451072 0.0316708 0.0110114 0.0463123 0.0312406 0.00994969 0.0475347 0.0307864 
0.00923242 0.0490011 0.029979 0.00855429 0.0504953 0.0291315 0.00867692 0.052146 0.028003 
0.00891129 0.0538185 0.0268352 0.0101875 0.0552542 0.0259007 0.0116374 0.0566504 0.025005 
0.0135956 0.0572888 0.0251163 0.0156529 0.0577792 0.0254242 0.0171901 0.0575115 0.026744 
0.0186103 0.0570732 0.0282916 0.0189921 0.0563862 0.0300961 0.0191077 0.0556354 0.0319666 
0.0184117 0.0550056 0.0336002 0.0174807 0.0544107 0.0351653 0.0161501 0.0540061 0.0364198 
0.0146898 0.0536631 0.0375736 0.0130819 0.0534511 0.0384759 0.0114208 0.0532863 0.0392874 
0.00971356 0.0531764 0.0398969 0.00798786 0.0530885 0.0404256 0.0062508 0.0529947 0.04077 
0.00450873 0.0528984 0.0410332 0.00277509 0.0527527 0.0411102 0.0198645 0.0388255 0.031922 
0.0194467 0.0396242 0.0322068 0.0190289 0.0404229 0.0324916 0.0181523 0.0412661 0.0326939 
0.0172662 0.0421101 0.0328944 0.0162924 0.0430323 0.0329833 0.015315 0.0439577 0.0330675 
0.0142938 0.0450107 0.0329957 0.0132697 0.0460719 0.0329137 0.0123214 0.0473196 0.0326168 
0.0113798 0.0485837 0.0323007 0.0107634 0.0500643 0.0317256 0.0101841 0.0515695 0.031121 
0.0102784 0.0531853 0.0303417 0.0104668 0.0548164 0.0295381 0.0114788 0.0561917 0.0289507 
0.0126281 0.0575243 0.0283993 0.0141634 0.0581528 0.0286003 0.015774 0.058644 0.0289481 
0.0169731 0.0584331 0.0300516 0.0180797 0.0580641 0.0313251 0.0183503 0.0574329 0.0328324 
0.0184065 0.0567344 0.0343998 0.0177662 0.0561182 0.0358268 0.0169242 0.0555258 0.0372132 
0.0156968 0.0551018 0.038374 0.0143444 0.0547325 0.0394615 0.012817 0.0544899 0.0403454 
0.0112263 0.054293 0.0411558 0.00955663 0.0541544 0.0417852 0.00785531 0.0540392 0.0423423 
0.00611545 0.053923 0.0427196 0.00435858 0.0538063 0.0430178 0.00259016 0.0536439 0.0431234 
0.0206709 0.039423 0.0327886 0.0202655 0.0402614 0.0331023 0.0198601 0.0410997 0.0334159 
0.0190177 0.0419863 0.0336533 0.0181661 0.0428739 0.033889 0.0172505 0.0438431 0.0340264 
0.0163321 0.0448159 0.0341596 0.0154009 0.0459166 0.0341648 0.0144688 0.0470256 0.0341618 
0.0136382 0.0483113 0.0339984 0.0128167 0.0496127 0.0338209 0.0123002 0.0511001 0.0334775 
0.0118184 0.0526087 0.0331152 0.0118827 0.0541796 0.0326819 0.0120232 0.0557593 0.0322387 
0.0127703 0.0570653 0.0319926 0.0136185 0.0583257 0.0317795 0.0147315 0.0589427 0.032069 
0.0158962 0.0594343 0.0324565 0.0167571 0.0592863 0.0333486 0.0175498 0.0589945 0.0343541 
0.0177076 0.0584285 0.0355687 0.0177027 0.0577922 0.0368369 0.0171167 0.0571975 0.0380589 
0.0163626 0.0566149 0.0392676 0.0152383 0.0561768 0.0403347 0.0139938 0.0557855 0.041356 
0.0125473 0.0555152 0.0422214 0.0110277 0.0552885 0.0430305 0.00939612 0.0551228 0.0436799 
0.0077198 0.0549815 0.0442655 0.00597764 0.0548435 0.0446761 0.00420643 0.054707 0.0450094 
0.00240356 0.0545284 0.0451439 0.0215419 0.0399974 0.0337257 0.0211486 0.0408655 0.034071 
0.0207552 0.0417336 0.0344163 0.0199447 0.0426463 0.0346905 0.0191255 0.0435599 0.0349632 
0.0182602 0.0445474 0.0351488 0.017393 0.045538 0.0353307 0.0165322 0.0466403 0.0354061 
0.0156718 0.0477499 0.0354746 0.0149197 0.0490054 0.0354201 0.0141771 0.0502739 0.0353546 
0.0137057 0.0516813 0.0351755 0.013265 0.0531044 0.0349835 0.0132681 0.0545458 0.0347624 
0.0133332 0.0559897 0.0345373 0.0138639 0.0571728 0.0344805 0.0144722 0.0583123 0.0344516 
0.0152736 0.0589044 0.0347988 0.0161126 0.0593896 0.0352193 0.0167123 0.0593323 0.0360189 
0.0172581 0.0591529 0.0369037 0.0172992 0.0587164 0.0379699 0.017211 0.058214 0.0390826 
0.016633 0.0577173 0.0401902 0.0159132 0.0572223 0.0412963 0.0148497 0.0568343 0.0423111 
0.0136748 0.0564809 0.0432964 0.0122861 0.056226 0.0441606 0.0108202 0.0560069 0.0449811 
0.00921843 0.0558391 0.0456598 0.00756236 0.0556919 0.0462817 0.00581674 0.0555452 0.0467329 
0.00403161 0.0553987 0.0471087 0.00219555 0.0552101 0.0472793 0.0224171 0.0405702 0.0346674 
0.0220358 0.0414675 0.0350445 0.0216545 0.0423647 0.0354217 0.0208757 0.0433024 0.0357329 
0.0200887 0.0442409 0.0360427 0.0192733 0.0452447 0.0362764 0.0184568 0.0462513 0.0365069 
0.0176651 0.0473522 0.036652 0.016875 0.0484592 0.0367916 0.0161988 0.0496801 0.0368443 
0.0155326 0.0509111 0.0368892 0.0151025 0.0522327 0.03687 0.0146993 0.0535646 0.0368435 
0.0146393 0.054871 0.036826 0.0146271 0.0561737 0.0368098 0.0149446 0.0572303 0.0369321 
0.0153171 0.0582458 0.0370776 0.0158139 0.0588121 0.0374804 0.0163351 0.0592906 0.0379335 
0.0166785 0.0593256 0.0386483 0.016982 0.0592609 0.0394221 0.0169062 0.0589581 0.0403492 
0.0167331 0.0585943 0.0413157 0.01616 0.0582006 0.0423148 0.0154711 0.0577983 0.0433233 
0.0144658 0.0574645 0.0442886 0.0133578 0.0571528 0.0452397 0.0120255 0.0569164 0.0461039 
0.0106121 0.0567072 0.0469366 0.00903962 0.0565389 0.0476451 0.0074035 0.0563871 0.048304 
0.00565434 0.0562325 0.0487962 0.0038553 0.0560767 0.049215 0.00198616 0.0558786 0.0494222 
0.0233371 0.0411221 0.0356886 0.0229644 0.0420408 0.0360992 0.0225916 0.0429595 0.0365098 
0.0218349 0.0439099 0.0368575 0.0210701 0.0448609 0.0372039 0.0202875 0.0458629 0.0374812 
0.0195041 0.0468671 0.0377556 0.0187532 0.0479432 0.0379575 0.0180043 0.049024 0.0381546 
0.0173635 0.050186 0.0382846 0.0167324 0.0513552 0.0384086 0.0163036 0.0525767 0.0384911 
0.0158978 0.0538041 0.0385688 0.0157669 0.0549824 0.0386672 0.0156743 0.056154 0.0387684 
0.0158327 0.0571033 0.0389869 0.0160328 0.0580156 0.0392249 0.0163206 0.0585555 0.0396644 
0.0166256 0.0590228 0.0401432 0.0167867 0.0591237 0.0408299 0.0169155 0.0591421 0.0415634 
0.0167377 0.0589484 0.0424333 0.0164813 0.0587003 0.0433382 0.0158851 0.0584045 0.044292 
0.0151905 0.0580948 0.0452598 0.0142054 0.0578237 0.046211 0.0131261 0.057565 0.0471569 
0.0118212 0.0573579 0.0480382 0.0104347 0.0571695 0.0488962 0.00887489 0.0570083 0.049643 
0.00724566 0.056858 0.0503453 0.00548548 0.0566986 0.050884 0.00366752 0.0565353 0.0513504 
0.00176315 0.056328 0.0515989 0.0242611 0.0416721 0.0367169 0.0238966 0.0426116 0.0371611 
0.0235321 0.0435511 0.0376052 0.0227965 0.044513 0.0379895 0.0220532 0.0454754 0.0383724 
0.0213018 0.0464741 0.0386929 0.02055 0.0474743 0.0390108 0.0198372 0.0485235 0.0392682 
0.019127 0.0495759 0.0395217 0.0185181 0.0506768 0.0397263 0.0179183 0.051782 0.0399266 
0.0174873 0.0529021 0.0401056 0.0170754 0.0540239 0.0402822 0.0168729 0.0550749 0.0404886 
0.0166997 0.0561161 0.0406992 0.0167036 0.0569599 0.0410063 0.0167371 0.0577707 0.0413296 
0.0168243 0.0582844 0.0418041 0.0169221 0.0587401 0.0423081 0.0169075 0.0589044 0.0429717 
0.0168676 0.0590031 0.0436712 0.0165892 0.0589163 0.0444912 0.0162496 0.058782 0.0453421 
0.0156278 0.0585836 0.046256 0.0149243 0.0583665 0.0471882 0.013956 0.0581588 0.0481286 
0.0129019 0.0579541 0.0490717 0.0116218 0.0577773 0.0499716 0.0102601 0.0576107 0.0508561 
0.00871141 0.0574572 0.0516419 0.0070879 0.0573089 0.0523883 0.00531604 0.0571451 0.0529738 
0.00347873 0.0569743 0.0534884 0.00153894 0.0567578 0.0537784 0.0252168 0.042207 0.0378379 
0.0248554 0.0431629 0.038317 0.0244941 0.0441189 0.0387961 0.0237672 0.0450859 0.0392156 
0.0230327 0.0460532 0.039634 0.0222942 0.047041 0.0399921 0.0215555 0.0480297 0.0403477 
0.0208559 0.0490461 0.0406481 0.0201588 0.0500642 0.0409449 0.0195532 0.0511051 0.0412004 
0.0189558 0.052148 0.0414523 0.0185011 0.0531816 0.0416904 0.0180626 0.0542142 0.0419268 
0.0177921 0.0551673 0.0421936 0.0175451 0.0561093 0.0424646 0.0174338 0.0568755 0.0428195 
0.0173451 0.0576124 0.0431883 0.0172925 0.0581013 0.0436842 0.0172468 0.0585419 0.0442049 
0.0171061 0.0587399 0.0448633 0.0169439 0.0588833 0.0455526 0.016582 0.0588629 0.0463553 
0.0161688 0.0588005 0.0471871 0.0155096 0.0586678 0.0480899 0.0147792 0.0585148 0.0490132 
0.0138037 0.0583522 0.0499596 0.0127487 0.0581865 0.0509136 0.0114706 0.0580304 0.051839 
0.010112 0.0578776 0.0527541 0.00855868 0.0577253 0.0535798 0.00692747 0.057573 0.0543698 
0.00513569 0.0573986 0.0550009 0.00327306 0.0572144 0.0555619 0.00129561 0.0569829 0.0558925 
0.0261761 0.0427402 0.0389695 0.0258173 0.043712 0.0394836 0.0254585 0.0446839 0.0399977 
0.0247389 0.0456554 0.0404525 0.0240118 0.0466269 0.040906 0.0232841 0.047603 0.0413012 
0.0225563 0.0485792 0.0416938 0.021867 0.049562 0.0420358 0.0211803 0.0505453 0.0423744 
0.0205748 0.0515262 0.0426782 0.0199765 0.052507 0.0429789 0.0194957 0.0534558 0.0432717 
0.0190282 0.0544011 0.0435636 0.0186901 0.0552596 0.0438854 0.0183701 0.0561061 0.0442113 
0.018148 0.0567979 0.0446092 0.0179422 0.0574639 0.0450191 0.0177565 0.0579283 0.0455348 
0.0175748 0.0583533 0.0460712 0.0173135 0.0585817 0.0467264 0.0170343 0.0587658 0.0474083 
0.0165908 0.0588071 0.0481975 0.0161051 0.0588119 0.0490142 0.0154073 0.0587414 0.049909 
0.014648 0.0586491 0.0508264 0.0136625 0.0585295 0.0517808 0.0126036 0.0584011 0.0527473 
0.0113249 0.0582644 0.0536988 0.00996693 0.0581248 0.0546449 0.00840718 0.0579728 0.0555107 
0.00676674 0.0578159 0.0563442 0.0049541 0.0576302 0.0570208 0.00306548 0.0574319 0.057628 
0.0010501 0.0571848 0.057999 0.0271609 0.0432636 0.0402118 0.0267994 0.0442501 0.0407628 
0.0264379 0.0452366 0.0413138 0.0257131 0.0462109 0.0418028 0.0249808 0.0471849 0.0422905 
0.0242479 0.0481485 0.0427179 0.0235149 0.0491117 0.0431427 0.0228173 0.0500639 0.0435161 
0.0221221 0.0510154 0.0438861 0.0214988 0.0519465 0.0442215 0.0208818 0.0528757 0.0445538 
0.0203648 0.0537593 0.0448778 0.0198591 0.0546378 0.045201 0.0194591 0.0554275 0.0455505 
0.0190738 0.0562049 0.0459038 0.0187649 0.0568428 0.0463211 0.0184687 0.0574575 0.046749 
0.0181841 0.0578991 0.0472718 0.0179018 0.058307 0.0478131 0.0175487 0.0585461 0.0484643 
0.0171797 0.0587473 0.0491403 0.0166667 0.0588197 0.0499215 0.0161169 0.0588591 0.0507296 
0.0153754 0.058821 0.0516209 0.0145785 0.0587605 0.0525363 0.0135685 0.0586609 0.0534982 
0.0124895 0.0585486 0.0544753 0.0111944 0.0584146 0.0554471 0.0098213 0.0582727 0.0564169 
0.00824299 0.058108 0.0573131 0.00658258 0.0579343 0.0581799 0.0047427 0.0577262 0.0588913 
0.00282363 0.0575031 0.0595342 0.000769759 0.0572306 0.0599363 0.0281493 0.0437856 0.0414697 
0.0277843 0.0447866 0.0420578 0.0274193 0.0457876 0.0426459 0.0266876 0.0467644 0.043169 
0.0259484 0.0477408 0.0436907 0.025208 0.0486918 0.0441496 0.0244675 0.0496418 0.044606 
0.0237591 0.0505638 0.0450093 0.0230528 0.051484 0.0454092 0.0224091 0.0523666 0.0457739 
0.0217711 0.0532458 0.0461354 0.0212164 0.054067 0.0464874 0.0206712 0.0548815 0.0468384 
0.02021 0.055606 0.047212 0.0197605 0.0563179 0.0475887 0.0193681 0.0569048 0.0480221 
0.0189853 0.0574709 0.0484648 0.0186066 0.0578901 0.0489929 0.0182286 0.0582806 0.0495376 
0.0177878 0.0585277 0.0501848 0.0173328 0.0587427 0.050855 0.0167521 0.0588418 0.0516289 
0.0161391 0.0589113 0.0524294 0.0153534 0.0589014 0.0533178 0.0145177 0.0588686 0.0542318 
0.0134812 0.0587858 0.0552012 0.0123797 0.0586868 0.0561886 0.0110659 0.0585531 0.0571797 
0.0096756 0.0584068 0.0581722 0.00807702 0.0582276 0.0590976 0.00639515 0.0580353 0.0599962 
0.00452714 0.0578033 0.060741 0.002577 0.0575539 0.0614181 0.000484561 0.0572547 0.0618501 
0.0291628 0.0442993 0.0428619 0.0287891 0.0453157 0.04349 0.0284154 0.0463321 0.0441182 
0.0276656 0.0473125 0.0446751 0.026908 0.0482923 0.0452306 0.0261472 0.0492335 0.0457175 
0.0253862 0.0501731 0.0462015 0.0246537 0.0510709 0.0466271 0.023923 0.0519659 0.0470488 
0.0232483 0.0528111 0.0474304 0.0225785 0.0536519 0.0478085 0.0219814 0.054427 0.0481722 
0.0213925 0.0551947 0.0485344 0.0208745 0.0558727 0.0489137 0.0203664 0.0565382 0.0492954 
0.0199043 0.0570887 0.0497273 0.0194499 0.05762 0.0501677 0.0189952 0.0580204 0.0506871 
0.0185403 0.0583952 0.0512218 0.0180267 0.0586417 0.0518548 0.0174998 0.0588593 0.0525098 
0.0168573 0.0589683 0.0532678 0.0161851 0.0590494 0.0540522 0.0153514 0.0590487 0.0549279 
0.0144709 0.0590244 0.05583 0.0133978 0.0589411 0.0567934 0.0122622 0.0588387 0.0577767 
0.010918 0.0586906 0.0587702 0.00949851 0.058526 0.0597674 0.00787033 0.0583196 0.0607024 
0.00615868 0.0580964 0.0616124 0.00425803 0.0578289 0.0623707 0.00227399 0.0575417 0.0630621 
0.000144169 0.0572052 0.0635064 0.0301805 0.0448116 0.0442765 0.0297972 0.0458435 0.0449452 
0.029414 0.0468754 0.0456138 0.0286442 0.0478598 0.0462046 0.0278664 0.0488431 0.0467939 
0.0270829 0.0497749 0.0473081 0.0262992 0.0507045 0.0478191 0.0255404 0.0515791 0.0482656 
0.0247832 0.05245 0.0487078 0.0240756 0.0532597 0.0491044 0.0233723 0.0540641 0.0494969 
0.0227319 0.0547959 0.0498696 0.0220986 0.0555194 0.05024 0.0215246 0.0561541 0.050622 
0.0209588 0.0567763 0.0510056 0.0204293 0.0572928 0.0514333 0.0199059 0.0577916 0.0518684 
0.0193781 0.0581739 0.0523768 0.0188495 0.0585334 0.0528994 0.0182655 0.0587778 0.0535164 
0.017669 0.0589962 0.0541546 0.0169658 0.0591122 0.0548952 0.0162351 0.0592018 0.0556622 
0.0153527 0.0592071 0.0565234 0.0144265 0.059188 0.057412 0.013315 0.0591014 0.0583672 
0.0121435 0.0589928 0.059344 0.0107669 0.058828 0.0603371 0.00931618 0.0586428 0.0613359 
0.00765684 0.0584069 0.0622772 0.00591404 0.0581509 0.0631953 0.00397999 0.0578458 0.0639637 
0.00196158 0.0575191 0.0646661 -0.000205421 0.0571434 0.0651199 0.0312262 0.0453102 0.045855 
0.0308285 0.0463596 0.0465681 0.0304307 0.047409 0.0472812 0.0296308 0.0483994 0.047907 
0.0288225 0.0493886 0.048531 0.028006 0.0503146 0.0490699 0.0271892 0.0512378 0.0496053 
0.0263947 0.0520952 0.0500662 0.0256017 0.0529483 0.0505224 0.0248546 0.0537322 0.0509238 
0.0241115 0.0545099 0.0513203 0.0234258 0.0552114 0.051689 0.0227465 0.0559042 0.0520545 
0.0221199 0.0565102 0.0524241 0.0215007 0.057104 0.0527944 0.0209118 0.0575992 0.0532022 
0.0203279 0.0580778 0.0536163 0.0197366 0.0584496 0.0540983 0.0191438 0.0588004 0.0545936 
0.0184964 0.0590439 0.0551795 0.0178366 0.0592632 0.0557858 0.0170737 0.0593823 0.0564934 
0.0162844 0.0594757 0.0572269 0.0153483 0.0594806 0.0580556 0.0143698 0.0594598 0.058912 
0.0132106 0.0593625 0.0598376 0.0119927 0.0592403 0.0607857 0.010573 0.0590511 0.0617535 
0.0090804 0.0588377 0.0627283 0.00738132 0.0585646 0.0636489 0.00559963 0.0582676 0.0645478 
0.00362824 0.0579165 0.0652994 0.00157316 0.0575415 0.065986 -0.000629082 0.0571177 0.0664251 
0.0322774 0.045806 0.0474654 0.0318642 0.0468733 0.0482238 0.031451 0.0479406 0.0489821 
0.030619 0.0489376 0.0496431 0.0297783 0.0499331 0.050302 0.0289267 0.0508538 0.0508651 
0.0280747 0.0517714 0.0514243 0.0272427 0.0526129 0.0518985 0.0264121 0.0534494 0.0523673 
0.0256242 0.0542093 0.0527715 0.02484 0.0549623 0.05317 0.0241085 0.0556361 0.0535322 
0.023383 0.0563008 0.0538902 0.0227046 0.0568809 0.0542446 0.0220327 0.0574492 0.0545985 
0.021386 0.0579255 0.0549833 0.0207433 0.0583864 0.0553733 0.0200903 0.0587491 0.055826 
0.0194353 0.0590926 0.056291 0.0187257 0.0593354 0.0568429 0.0180039 0.0595556 0.0574144 
0.0171816 0.0596771 0.0580858 0.0163335 0.0597733 0.0587827 0.0153428 0.0597765 0.0595755 
0.0143108 0.0597527 0.0603961 0.0131019 0.0596432 0.0612879 0.0118357 0.0595059 0.0622029 
0.0103708 0.0592909 0.0631405 0.00883419 0.0590479 0.0640864 0.00709368 0.0587359 0.0649811 
0.00527161 0.0583964 0.0658553 0.0032621 0.0579976 0.0665848 0.0011699 0.0575726 0.0672504 
-0.0010672 0.0570989 0.0676702 0.0333602 0.0462728 0.0492745 0.0329269 0.0473599 0.0500839 
0.0324936 0.048447 0.0508933 0.0316204 0.0494527 0.0515915 0.030738 0.0504566 0.0522875 
0.0298428 0.0513752 0.052873 0.0289471 0.0522901 0.0534538 0.0280711 0.0531206 0.0539356 
0.0271964 0.0539456 0.0544109 0.0263642 0.0546893 0.0548087 0.0255358 0.0554257 0.0551996 
0.024759 0.0560828 0.055543 0.023988 0.0567308 0.055881 0.0232616 0.0572985 0.0562061 
0.0225415 0.0578549 0.0565294 0.021843 0.0583266 0.056876 0.0211481 0.0587842 0.0572265 
0.0204392 0.0591512 0.0576339 0.0197276 0.0595004 0.0580523 0.0189588 0.0597537 0.0585534 
0.0181771 0.0599855 0.059073 0.0172935 0.0601181 0.0596895 0.0163837 0.0602254 0.0603307 
0.0153312 0.0602333 0.0610662 0.0142373 0.0602123 0.0618289 0.012968 0.0600948 0.0626625 
0.0116419 0.059946 0.063519 0.01012 0.0597069 0.0643987 0.00852751 0.0594353 0.0652867 
0.00673569 0.0590836 0.0661254 0.00486415 0.0586998 0.0669444 0.00281117 0.0582497 0.0676218 
0.000678163 0.0577703 0.0682366 -0.00159295 0.0572407 0.0686101 0.0344501 0.046733 0.0511282 
0.0339957 0.0478404 0.0519899 0.0335413 0.0489478 0.0528517 0.0326247 0.0499626 0.0535878 
0.0316985 0.0509755 0.0543213 0.0307579 0.0518925 0.0549287 0.0298166 0.0528054 0.0555307 
0.028895 0.0536261 0.0560186 0.0279747 0.0544407 0.0564991 0.0270975 0.0551699 0.0568885 
0.0262241 0.0558916 0.0572697 0.0254021 0.0565344 0.0575916 0.0245859 0.0571683 0.0579068 
0.0238124 0.0577266 0.0581993 0.023045 0.0582743 0.0584887 0.0222961 0.0587446 0.0587938 
0.0215504 0.0592021 0.0591014 0.020787 0.0595763 0.0594598 0.0200202 0.0599343 0.0598281 
0.0191928 0.0602006 0.0602744 0.0183518 0.0604463 0.0607384 0.0174063 0.0605921 0.0612957 
0.0164341 0.0607123 0.0618769 0.0153182 0.0607262 0.0625502 0.0141606 0.0607094 0.0632502 
0.0128285 0.0605849 0.06402 0.0114398 0.0604253 0.0648124 0.00985832 0.0601626 0.0656278 
0.00820723 0.0598626 0.0664516 0.00636187 0.0594708 0.0672276 0.00443881 0.0590424 0.0679844 
0.00234118 0.0585402 0.0686029 0.000166519 0.0580054 0.0691602 -0.00213843 0.0574186 0.0694814 
0.0355744 0.0471362 0.0532205 0.0350944 0.0482649 0.0541424 0.0346143 0.0493937 0.0550644 
0.0336458 0.0504184 0.0558415 0.0326671 0.0514409 0.0566157 0.0316738 0.0523577 0.0572435 
0.0306799 0.0532701 0.0578651 0.0297087 0.054084 0.0583532 0.0287389 0.0548915 0.0588327 
0.0278165 0.0556126 0.0592038 0.0268982 0.056326 0.0595653 0.0260346 0.056965 0.0598533 
0.0251771 0.0575955 0.0601329 0.0243632 0.0581589 0.0603788 0.0235553 0.0587129 0.06062 
0.0227637 0.0592003 0.0608685 0.0219747 0.0596765 0.0611181 0.0211628 0.0600789 0.0614119 
0.0203464 0.0604669 0.0617143 0.0194623 0.0607684 0.0620893 0.018563 0.0610504 0.0624807 
0.0175522 0.0612308 0.0629608 0.0165127 0.0613852 0.0634637 0.015324 0.0614248 0.0640543 
0.0140921 0.0614312 0.0646704 0.0126835 0.0613156 0.0653528 0.0112176 0.0611604 0.0660566 
0.00956126 0.0608854 0.0667813 0.00783621 0.0605671 0.0675137 0.00592387 0.0601416 0.0681982 
0.00393663 0.0596732 0.0688637 0.0017855 0.0591197 0.0693943 -0.000437937 0.0585288 0.0698654 
-0.00277906 0.057881 0.0701079 0.0367076 0.0475246 0.055374 0.0362008 0.048675 0.0563581 
0.0356939 0.0498254 0.0573422 0.0346712 0.0508602 0.0581612 0.0336378 0.0518925 0.0589768 
0.03259 0.0528096 0.0596247 0.0315416 0.0537217 0.0602656 0.0305197 0.0545297 0.0607524 
0.0294995 0.055331 0.0612291 0.0285318 0.0560456 0.0615795 0.0275686 0.0567525 0.0619187 
0.0266643 0.0573902 0.0621696 0.0257666 0.05802 0.0624104 0.0249139 0.0585923 0.0626061 
0.0240674 0.0591566 0.0627955 0.0232349 0.0596656 0.0629834 0.0224046 0.0601655 0.0631711 
0.0215456 0.0606014 0.0633963 0.0206811 0.0610249 0.0636288 0.0197409 0.0613672 0.0639283 
0.0187837 0.0616911 0.0642429 0.0177065 0.0619117 0.0646411 0.0165986 0.0621058 0.0650608 
0.0153346 0.0621761 0.0655636 0.0140256 0.0622105 0.0660904 0.012537 0.062108 0.0666793 
0.0109902 0.0619612 0.0672882 0.00925515 0.0616768 0.0679155 0.00745218 0.0613429 0.0685493 
0.00546942 0.0608851 0.0691352 0.00341474 0.0603778 0.0697019 0.00120785 0.0597734 0.0701372 
-0.00106619 0.0591261 0.0705146 -0.00344407 0.0584164 0.0706715 0.0378751 0.0478117 0.0578091 
0.0373366 0.0489826 0.0588656 0.0367982 0.0501535 0.059922 0.035713 0.0511967 0.0607873 
0.0346164 0.0522373 0.0616486 0.0335084 0.0531533 0.0623151 0.0323999 0.0540641 0.0629734 
0.0313259 0.0548671 0.0634519 0.0302543 0.0556631 0.0639188 0.029245 0.056376 0.0642376 
0.0282413 0.0570815 0.0645433 0.0273048 0.0577284 0.0647436 0.026376 0.0583687 0.064932 
0.0254962 0.0589673 0.0650631 0.0246232 0.0595602 0.0651862 0.0237619 0.0601155 0.0652994 
0.0229025 0.0606645 0.0654109 0.0220058 0.0611647 0.0655535 0.0211019 0.0616555 0.0657021 
0.020109 0.0620732 0.0659122 0.019096 0.0624746 0.0661362 0.0179481 0.0627712 0.066438 
0.0167655 0.0630411 0.0667598 0.0154142 0.0631756 0.0671584 0.014014 0.0632709 0.0675792 
0.0124272 0.0632097 0.0680557 0.0107798 0.0630977 0.0685502 0.00894501 0.0628244 0.0690581 
0.00704259 0.0624929 0.0695708 0.00496955 0.0620146 0.0700338 0.00282826 0.0614775 0.0704771 
0.000550675 0.0608252 0.0707924 -0.00178705 0.0601222 0.0710513 -0.00420935 0.0593464 0.0710995 
0.0390524 0.0480693 0.0603258 0.0384811 0.0492605 0.0614575 0.0379097 0.0504516 0.0625892 
0.0367595 0.0515028 0.063502 0.0355972 0.052551 0.0644104 0.0344274 0.0534658 0.065095 
0.0332572 0.0543748 0.0657701 0.0321308 0.0551731 0.0662385 0.0310073 0.0559641 0.0666934 
0.0299576 0.0566766 0.0669774 0.0289146 0.0573822 0.0672463 0.0279485 0.0580415 0.0673922 
0.0269912 0.0586954 0.0675241 0.0260877 0.0593255 0.0675866 0.0251916 0.0599522 0.0676393 
0.0243051 0.0605608 0.0676735 0.0234201 0.0611665 0.0677047 0.0224884 0.0617399 0.0677606 
0.0215476 0.062307 0.0678215 0.0205029 0.0628103 0.0679381 0.0194348 0.0632993 0.0680674 
0.0182148 0.0636824 0.0682687 0.0169559 0.0640384 0.0684884 0.0155137 0.0642469 0.068778 
0.0140184 0.0644127 0.0690878 0.012328 0.0644008 0.0694465 0.0105743 0.0643314 0.069821 
0.00863372 0.0640751 0.0702032 0.00662561 0.0637514 0.0705882 0.00445654 0.0632558 0.0709214 
0.00222308 0.0626915 0.071234 -0.000129527 0.0619923 0.0714222 -0.00253471 0.0612336 0.0715555 
-0.00500364 0.0603906 0.0714882 0.0402581 0.0481611 0.0631666 0.039649 0.0493679 0.0643862 
0.0390399 0.0505747 0.0656059 0.0378165 0.0516286 0.0665717 0.0365802 0.0526793 0.0675322 
0.0353442 0.0535879 0.0682327 0.0341083 0.0544904 0.0689221 0.0329314 0.0552816 0.0693717 
0.0317585 0.0560656 0.0698057 0.0306778 0.0567809 0.0700421 0.0296052 0.0574901 0.0702609 
0.0286256 0.0581727 0.0703379 0.0276564 0.0588524 0.0703987 0.0267494 0.0595354 0.0703781 
0.0258509 0.0602189 0.0703461 0.0249595 0.0609137 0.0702888 0.0240692 0.0616103 0.0702273 
0.0231182 0.0623 0.0701864 0.0221555 0.0629882 0.0701496 0.021066 0.0636276 0.0701644 
0.019948 0.0642559 0.0701909 0.0186515 0.0647785 0.0702836 0.0173092 0.065274 0.0703932 
0.0157595 0.0656062 0.0705648 0.0141497 0.0658911 0.0707542 0.0123298 0.0659697 0.0709835 
0.0104416 0.0659813 0.0712257 0.00836438 0.0657703 0.0714673 0.00621885 0.0654789 0.0717087 
0.00392386 0.0649804 0.0718943 0.00156909 0.064399 0.0720574 -0.000882556 0.0636543 0.0720984 
-0.00337694 0.0628376 0.0720857 -0.00590735 0.0619188 0.0718829 0.0414729 0.0481991 0.0661125 
0.0408245 0.0494201 0.0674242 0.0401761 0.0506411 0.068736 0.0388768 0.051696 0.0697564 
0.0375639 0.0527474 0.0707708 0.0362604 0.0536482 0.0714864 0.0349573 0.0545426 0.0721893 
0.0337307 0.0553261 0.0726174 0.0325091 0.0561024 0.0730275 0.0314003 0.0568214 0.0732121 
0.0303015 0.0575353 0.0733766 0.0293134 0.0582451 0.0733799 0.0283379 0.0589544 0.0733648 
0.0274338 0.0596973 0.0732565 0.0265397 0.0604449 0.0731352 0.0256499 0.0612365 0.0729823 
0.0247608 0.0620353 0.0728241 0.0237958 0.0628552 0.0726831 0.0228159 0.0636791 0.0725454 
0.021684 0.0644709 0.0724557 0.0205178 0.0652554 0.0723768 0.0191433 0.0659346 0.0723582 
0.0177153 0.0665869 0.0723552 0.0160527 0.067059 0.0724058 0.0143223 0.0674788 0.0724719 
0.0123643 0.0676611 0.072568 0.0103325 0.0677662 0.0726738 0.00810864 0.0676097 0.0727701 
0.0058154 0.0673586 0.0728628 0.0033848 0.0668617 0.0728947 0.000899261 0.0662666 0.0729022 
-0.0016592 0.0654768 0.0727897 -0.00424984 0.0646013 0.0726242 -0.00684656 0.0636038 0.0722795 
0.0427024 0.0479836 0.0694159 0.0420094 0.0492093 0.070835 0.0413165 0.0504349 0.0722542 
0.0399331 0.0514802 0.0733352 0.0385353 0.0525218 0.0744092 0.0371618 0.053405 0.0751366 
0.0357893 0.0542814 0.0758491 0.0345194 0.0550507 0.0762447 0.0332563 0.0558129 0.0766196 
0.0321363 0.0565362 0.0767371 0.0310292 0.057256 0.0768317 0.030059 0.0580046 0.0767454 
0.0291045 0.0587564 0.0766385 0.0282359 0.0595855 0.0764292 0.0273794 0.0604254 0.0762056 
0.0265241 0.0613565 0.0759484 0.0256692 0.0623029 0.0756855 0.0247164 0.0633118 0.0754408 
0.0237445 0.0643329 0.0751996 0.0225832 0.0653476 0.0750059 0.0213793 0.066361 0.0748229 
0.0199219 0.0672719 0.0746959 0.0183994 0.0681566 0.0745832 0.0166006 0.0688385 0.0745146 
0.0147218 0.0694617 0.0744587 0.0125872 0.0698034 0.0744196 0.0103698 0.0700538 0.074386 
0.00795287 0.0699871 0.0743295 0.00546394 0.0698058 0.0742648 0.00285224 0.069324 0.0741301 
0.000191428 0.0687219 0.0739675 -0.00251074 0.0678815 0.0736841 -0.00523114 0.0669358 0.0733475 
-0.00791779 0.065841 0.0728414 0.0439371 0.0476767 0.0728484 0.0431977 0.0489034 0.0743805 