# vtk DataFile Version 3.0
vtk output
ASCII
DATASET RECTILINEAR_GRID
FIELD FieldData 2
base_index 1 3 int
0 68 34 
avtOriginalBounds 1 6 double
-10 -3.33333 3.33333 10 -3.33333 3.33333 
DIMENSIONS 34 34 34
X_COORDINATES 34 float
-10 -9.79798 -9.59596 -9.39394 -9.19192 -8.9899 -8.78788 -8.58586 -8.38384 
-8.18182 -7.9798 -7.77778 -7.57576 -7.37374 -7.17172 -6.9697 -6.76768 -6.56566 
-6.36364 -6.16162 -5.9596 -5.75758 -5.55556 -5.35354 -5.15152 -4.9495 -4.74747 
-4.54545 -4.34343 -4.14141 -3.93939 -3.73737 -3.53535 -3.33333 
Y_COORDINATES 34 float
3.33333 3.53535 3.73737 3.93939 4.14141 4.34343 4.54545 4.74747 4.94949 
5.15152 5.35354 5.55556 5.75758 5.9596 6.16162 6.36364 6.56566 6.76768 
6.9697 7.17172 7.37374 7.57576 7.77778 7.9798 8.18182 8.38384 8.58586 
8.78788 8.9899 9.19192 9.39394 9.59596 9.79798 10 
Z_COORDINATES 34 float
-3.33333 -3.13131 -2.92929 -2.72727 -2.52525 -2.32323 -2.12121 -1.91919 -1.71717 
-1.51515 -1.31313 -1.11111 -0.909091 -0.707071 -0.505051 -0.30303 -0.10101 0.10101 
0.30303 0.50505 0.70707 0.909091 1.11111 1.31313 1.51515 1.71717 1.91919 
2.12121 2.32323 2.52525 2.72727 2.92929 3.13131 3.33333 
POINT_DATA 39304
FIELD FieldData 1
grad 3 39304 float
0.0841795 -0.139632 0.130905 0.0742911 -0.152625 0.143494 0.0644028 -0.165618 0.156083 
0.0421103 -0.173773 0.163944 0.0195596 -0.181827 0.171708 -0.00517486 -0.182179 0.172128 
-0.0300021 -0.182205 0.172235 -0.0511788 -0.175301 0.1657 -0.0721172 -0.167945 0.158731 
-0.0860748 -0.157317 0.148341 -0.0994118 -0.146397 0.137646 -0.105995 -0.135902 0.126595 
-0.111811 -0.125454 0.115504 -0.113048 -0.117691 0.10564 -0.113645 -0.110302 0.0959472 
-0.111928 -0.106649 0.0879394 -0.109826 -0.103618 0.0802126 -0.10681 -0.104803 0.0742584 
-0.103615 -0.10681 0.0686501 -0.0996397 -0.113325 0.0649669 -0.0954887 -0.120854 0.061717 
-0.089152 -0.13296 0.0606005 -0.0822548 -0.14624 0.0600311 -0.0702667 -0.163269 0.0614515 
-0.056805 -0.181382 0.0634478 -0.0351286 -0.200146 0.0662968 -0.0107879 -0.219121 0.0694225 
0.022113 -0.232824 0.07113 0.058105 -0.244623 0.0723255 0.0983131 -0.246083 0.0701582 
0.140208 -0.243407 0.0666458 0.180449 -0.231771 0.0600946 0.21996 -0.216182 0.0522028 
0.255766 -0.197895 0.0432565 0.0716055 -0.138251 0.113558 0.0629323 -0.149649 0.123264 
0.0542592 -0.161048 0.13297 0.0350543 -0.167982 0.138995 0.0156302 -0.174823 0.144942 
-0.00545626 -0.175009 0.145502 -0.0266133 -0.174911 0.145833 -0.0450898 -0.168813 0.141203 
-0.0633914 -0.162324 0.136249 -0.0764072 -0.1528 0.128438 -0.0889531 -0.143008 0.120373 
-0.0961937 -0.13338 0.111658 -0.102831 -0.12377 0.102868 -0.10576 -0.116492 0.0947984 
-0.108171 -0.10954 0.0868287 -0.108726 -0.106092 0.0802083 -0.108972 -0.103228 0.0738128 
-0.108585 -0.10455 0.0691335 -0.108076 -0.106689 0.064789 -0.106974 -0.113594 0.0625908 
-0.105738 -0.121571 0.0608755 -0.102215 -0.134796 0.0617786 -0.0981058 -0.149367 0.0633531 
-0.0879463 -0.168803 0.0675699 -0.0760354 -0.189646 0.0725517 -0.0535467 -0.212173 0.0787662 
-0.0276273 -0.235245 0.0853806 0.00980435 -0.252608 0.0898492 0.0513932 -0.267909 0.0935429 
0.0982584 -0.270531 0.0919316 0.147234 -0.268081 0.0881981 0.192609 -0.254935 0.0797922 
0.236395 -0.237069 0.0693247 0.273412 -0.217108 0.0575442 0.0614718 -0.132576 0.0991257 
0.0538405 -0.142299 0.106831 0.0462092 -0.152021 0.114536 0.0295171 -0.157799 0.119322 
0.0126364 -0.163495 0.124047 -0.00557643 -0.163586 0.124642 -0.0238459 -0.163439 0.125061 
-0.0401317 -0.158233 0.121629 -0.056288 -0.152697 0.117945 -0.0684248 -0.144467 0.111889 
-0.0802041 -0.135998 0.105623 -0.0878791 -0.127502 0.0986375 -0.0950876 -0.119002 0.0915707 
-0.0994349 -0.112433 0.0849524 -0.103383 -0.106132 0.0783966 -0.106041 -0.102955 0.0729965 
-0.108484 -0.100298 0.067789 -0.110765 -0.101586 0.0643183 -0.113016 -0.103645 0.0611866 
-0.115149 -0.110487 0.0605166 -0.117257 -0.118407 0.0604006 -0.117336 -0.132058 0.0636031 
-0.116895 -0.147178 0.0676566 -0.109601 -0.168319 0.075423 -0.100323 -0.191203 0.0842642 
-0.077488 -0.217205 0.0951806 -0.0502555 -0.244219 0.10677 -0.00724076 -0.265387 0.115326 
0.0414731 -0.284445 0.122786 0.0970491 -0.288079 0.121889 0.15537 -0.285543 0.117649 
0.207063 -0.270308 0.106211 0.255833 -0.249471 0.0915976 0.293354 -0.227415 0.0754985 
0.052302 -0.126142 0.0858987 0.0456289 -0.134283 0.0918599 0.0389559 -0.142423 0.097821 
0.0245469 -0.147127 0.10153 0.00997676 -0.15176 0.105193 -0.00564711 -0.15176 0.105802 
-0.0213157 -0.151563 0.106281 -0.0356132 -0.147178 0.103863 -0.0498211 -0.142521 0.101255 
-0.0611287 -0.135502 0.0967118 -0.0721784 -0.128274 0.0919962 -0.0802093 -0.120855 0.086529 
-0.0878972 -0.113413 0.0809764 -0.0935197 -0.107506 0.0756562 -0.098854 -0.101813 0.0703684 
-0.10346 -0.0988202 0.0660793 -0.107944 -0.096278 0.0619566 -0.112772 -0.0973365 0.0596073 
-0.117667 -0.0990976 0.0576039 -0.123014 -0.105474 0.0583939 -0.128463 -0.112889 0.0598123 
-0.132336 -0.126225 0.0653155 -0.135805 -0.141081 0.0718661 -0.131855 -0.162763 0.0834094 
-0.125758 -0.186422 0.0963981 -0.103015 -0.214465 0.112685 -0.0748744 -0.24393 0.130043 
-0.0259883 -0.267751 0.14355 0.0303891 -0.289533 0.155668 0.0955658 -0.293873 0.155584 
0.164262 -0.291237 0.150621 0.222702 -0.274542 0.135351 0.276618 -0.251646 0.115534 
0.314234 -0.228544 0.0942798 0.045317 -0.117987 0.075404 0.0394128 -0.124759 0.0802035 
0.0335087 -0.13153 0.085003 0.0208617 -0.135348 0.0880039 0.0080743 -0.139105 0.0909673 
-0.00560563 -0.13902 0.091543 -0.0193235 -0.138772 0.092017 -0.0320912 -0.135049 0.0901955 
-0.0447968 -0.131099 0.0882243 -0.0553884 -0.125108 0.0846426 -0.0657919 -0.118935 0.0809177 
-0.0740013 -0.112465 0.0764872 -0.0819612 -0.105961 0.0719765 -0.0885332 -0.100612 0.0676062 
-0.0949116 -0.0954248 0.0632556 -0.101114 -0.0924239 0.0598298 -0.107286 -0.0897874 0.0565582 
-0.114385 -0.0901715 0.0551321 -0.121664 -0.0911449 0.0540661 -0.130174 -0.0961371 0.0561611 
-0.138962 -0.102034 0.0589673 -0.147065 -0.11338 0.0667737 -0.154993 -0.126125 0.0758621 
-0.15547 -0.145711 0.091698 -0.153791 -0.167277 0.109487 -0.132137 -0.194108 0.132662 
-0.104005 -0.222647 0.157584 -0.0485946 -0.246504 0.178004 0.0166669 -0.26867 0.196798 
0.0934615 -0.273026 0.197754 0.174869 -0.270258 0.191576 0.241027 -0.253528 0.170659 
0.300457 -0.230639 0.14324 0.337239 -0.208872 0.114936 0.0390126 -0.109731 0.0657598 
0.0338145 -0.115234 0.0695357 0.0286165 -0.120737 0.0733117 0.0175745 -0.123737 0.0756875 
0.00641082 -0.126685 0.0780342 -0.00550918 -0.12651 0.0785698 -0.0174613 -0.126201 0.0790283 
-0.0288348 -0.123066 0.0777143 -0.0401704 -0.119745 0.0762847 -0.0500854 -0.114679 0.0735335 
-0.0598741 -0.109457 0.0706648 -0.0682007 -0.103844 0.0671384 -0.0763612 -0.0981861 0.0635372 
-0.0837389 -0.0933158 0.0599991 -0.0910074 -0.0885553 0.0564697 -0.0985916 -0.0854462 0.0537952 
-0.106229 -0.0826125 0.0512632 -0.11531 -0.0821356 0.0506286 -0.124674 -0.0821186 0.0503642 
-0.135985 -0.0853299 0.0535756 -0.147734 -0.0892676 0.057569 -0.15968 -0.0977964 0.0673895 
-0.171677 -0.107502 0.0787042 -0.176361 -0.123399 0.0984338 -0.178929 -0.141086 0.120599 
-0.158571 -0.164177 0.150296 -0.130778 -0.189019 0.182436 -0.0694659 -0.210361 0.209643 
0.00395011 -0.230439 0.235069 0.0915441 -0.23425 0.236991 0.184809 -0.231553 0.229511 
0.2579 -0.216541 0.202918 0.32209 -0.196096 0.167893 0.35761 -0.177993 0.132749 
0.0344098 -0.101221 0.0582421 0.0297611 -0.105707 0.0613396 0.0251124 -0.110192 0.0644371 
0.0152825 -0.112544 0.0663968 0.00534478 -0.114853 0.0683327 -0.00527528 -0.114573 0.0688119 
-0.0159243 -0.114183 0.0692291 -0.0262425 -0.111448 0.0681987 -0.0365391 -0.10856 0.0670739 
-0.0458761 -0.104164 0.064825 -0.0551277 -0.0996332 0.0624761 -0.063419 -0.0946452 0.0595223 
-0.0716012 -0.0896052 0.0564997 -0.0794248 -0.085012 0.0534989 -0.0871985 -0.0804811 0.0505012 
-0.0956293 -0.0770151 0.0482978 -0.10417 -0.0737265 0.0462268 -0.114517 -0.0719227 0.0460542 
-0.125216 -0.0704086 0.0462521 -0.138422 -0.0708467 0.0501083 -0.152191 -0.0717242 0.0547875 
-0.167012 -0.075364 0.0658996 -0.182102 -0.0797122 0.0786611 -0.190442 -0.0879361 0.101288 
-0.196827 -0.0972819 0.12677 -0.178283 -0.110309 0.162073 -0.151654 -0.12453 0.200562 
-0.0859993 -0.136978 0.234246 -0.00625298 -0.148787 0.266193 0.090094 -0.15065 0.268894 
0.193081 -0.148534 0.259897 0.271142 -0.139623 0.227553 0.338206 -0.127713 0.18491 
0.371397 -0.119098 0.143453 0.0302663 -0.0928734 0.0512783 0.0261248 -0.0964144 0.0537695 
0.0219833 -0.0999555 0.0562606 0.013266 -0.101706 0.0578472 0.00445356 -0.103419 0.0594149 
-0.00497854 -0.103031 0.0598377 -0.0144369 -0.102553 0.0602118 -0.023784 -0.100168 0.0594238 
-0.0331237 -0.0976586 0.0585601 -0.041908 -0.0938624 0.0567462 -0.0506429 -0.0899519 0.0548479 
-0.0588505 -0.0855261 0.052389 -0.0669982 -0.0810417 0.0498664 -0.0751368 -0.0766836 0.0473198 
-0.0832741 -0.072343 0.0447697 -0.0923171 -0.0684916 0.0429374 -0.101511 -0.0647217 0.0412246 
-0.112737 -0.0615455 0.041366 -0.124359 -0.0584853 0.0418692 -0.138833 -0.0560268 0.0461054 
-0.153947 -0.0537037 0.0511817 -0.170678 -0.0521425 0.0630555 -0.187823 -0.0507767 0.0766724 
-0.198625 -0.0506493 0.101104 -0.207591 -0.0508804 0.128667 -0.190341 -0.0526516 0.16759 
-0.164588 -0.0549223 0.210198 -0.0962017 -0.0571498 0.248079 -0.0124194 -0.0593617 0.284254 
0.0894069 -0.0588598 0.287296 0.198451 -0.0572725 0.277085 0.279121 -0.0551846 0.240717 
0.347274 -0.0528759 0.192809 0.377909 -0.0547933 0.147087 0.0273944 -0.0849721 0.0458489 
0.0236435 -0.0877735 0.0479331 0.0198926 -0.090575 0.0500173 0.0120125 -0.0918487 0.0513503 
0.00404647 -0.0930905 0.0526675 -0.00450777 -0.0925808 0.0530339 -0.013087 -0.0919964 0.0533597 
-0.0216958 -0.0898227 0.0527002 -0.0303065 -0.0875454 0.0519765 -0.0386083 -0.0841543 0.0504116 
-0.0468827 -0.0806643 0.0487721 -0.0548727 -0.0766265 0.0465932 -0.0628304 -0.0725265 0.0443531 
-0.0709209 -0.0682871 0.0420297 -0.07903 -0.0640282 0.0396948 -0.0880362 -0.0597126 0.0379565 
-0.0971919 -0.0553877 0.0363177 -0.108226 -0.0507137 0.0363627 -0.119627 -0.0459717 0.0367362 
-0.133633 -0.0402746 0.0406197 -0.148226 -0.0343626 0.045293 -0.164195 -0.026736 0.0564615 
-0.180517 -0.0186698 0.0692955 -0.190478 -0.00831067 0.0925103 -0.198599 0.00271223 0.11873 
-0.181204 0.0154983 0.15577 -0.155533 0.0288562 0.19632 -0.0888711 0.0405279 0.232093 
-0.00740685 0.0515908 0.266141 0.0908332 0.0556104 0.268308 0.195784 0.0568126 0.257723 
0.272526 0.050075 0.222112 0.336824 0.0398346 0.17546 0.364275 0.0244934 0.131143 
0.0248306 -0.0773083 0.04077 0.0214435 -0.0794186 0.0424858 0.0180563 -0.0815291 0.0442016 
0.010952 -0.0823543 0.045305 0.00377019 -0.0831527 0.0463957 -0.00397436 -0.0825205 0.0467094 
-0.0117428 -0.0818273 0.0469901 -0.0196674 -0.0798384 0.046443 -0.0276021 -0.077765 0.0458419 
-0.0354429 -0.074745 0.0444951 -0.0432753 -0.0716409 0.043082 -0.0510217 -0.0679731 0.0411416 
-0.0587582 -0.0642413 0.0391413 -0.0667097 -0.0601407 0.0369883 -0.0746911 -0.0559885 0.034814 
-0.0834738 -0.0512836 0.0330951 -0.0923901 -0.0464866 0.0314521 -0.102897 -0.0404579 0.0312786 
-0.113715 -0.0341888 0.031392 -0.126693 -0.0254907 0.0346982 -0.140157 -0.0162461 0.0387229 
-0.15451 -0.002965 0.0487391 -0.169091 0.0113511 0.0602916 -0.177196 0.0311825 0.0813928 
-0.183426 0.0526107 0.105258 -0.165456 0.0786957 0.138851 -0.139638 0.106291 0.175598 
-0.0759649 0.130621 0.207527 0.00137757 0.153771 0.237715 0.0934154 0.161393 0.238606 
0.191331 0.162804 0.227777 0.262101 0.148705 0.194127 0.320895 0.127763 0.150407 
0.344718 0.100502 0.109045 0.0232166 -0.0703766 0.0367723 0.0201105 -0.0719457 0.0382383 
0.0170044 -0.0735149 0.0397043 0.0104863 -0.0739791 0.0406525 0.00389724 -0.0744204 0.0415899 
-0.0032478 -0.073662 0.041863 -0.0104165 -0.0728525 0.0421079 -0.0178235 -0.0709667 0.0416237 
-0.025246 -0.0690107 0.041092 -0.0326917 -0.0662567 0.0398675 -0.0401395 -0.0634319 0.0385814 
-0.0475618 -0.0600787 0.0367513 -0.0549811 -0.0566655 0.0348594 -0.0625127 -0.0527655 0.0327134 
-0.0700599 -0.0487976 0.0305319 -0.0780436 -0.0439337 0.0286018 -0.0860999 -0.0389204 0.0267136 
-0.0950462 -0.0319777 0.0259458 -0.104166 -0.0246585 0.0253966 -0.114384 -0.0136924 0.0274333 
-0.124849 -0.0019057 0.0300518 -0.134952 0.015763 0.0375372 -0.144961 0.03494 0.0462706 
-0.148077 0.0619024 0.0624942 -0.149197 0.0911184 0.080886 -0.129329 0.126623 0.106207 
-0.102653 0.164166 0.133776 -0.045867 0.197327 0.156508 0.0217922 0.228905 0.177493 
0.099562 0.24039 0.175867 0.181376 0.243839 0.165196 0.23987 0.226891 0.137217 
0.288075 0.200944 0.101603 0.306897 0.166401 0.067975 0.0218111 -0.063683 0.0329972 
0.0189694 -0.0647419 0.0342356 0.0161276 -0.0658008 0.035474 0.0101579 -0.0659218 0.0362828 
0.00412306 -0.0660234 0.0370827 -0.00246608 -0.0651394 0.0373225 -0.00907877 -0.0642135 0.0375385 
-0.0160086 -0.062419 0.0371158 -0.022959 -0.060568 0.0366516 -0.0300388 -0.05807 0.0355404 
-0.0371301 -0.0555146 0.0343717 -0.0442376 -0.0524908 0.0326355 -0.051347 -0.0494137 0.0308349 
-0.0584342 -0.0457835 0.0286692 -0.0655183 -0.0420761 0.0264526 -0.0726193 -0.0372096 0.0242679 
-0.0797231 -0.0321499 0.0220886 -0.0869336 -0.0245718 0.0206564 -0.0941649 -0.0165023 0.0193701 
-0.101343 -0.00371618 0.0200281 -0.10851 0.0101313 0.0211235 -0.114034 0.0314712 0.0259199 
-0.119136 0.0547322 0.0316653 -0.117044 0.0876684 0.0428323 -0.112869 0.123405 0.0555687 
-0.0911071 0.166695 0.0725501 -0.0636417 0.212435 0.0909083 -0.0138503 0.253021 0.104514 
0.0440033 0.291747 0.116404 0.107242 0.307212 0.11205 0.172634 0.313374 0.101198 
0.218179 0.295215 0.0784697 0.254966 0.266327 0.0505014 0.267966 0.226309 0.0244928 
0.0211264 -0.0578121 0.0299909 0.0184911 -0.0584678 0.0310785 0.0158559 -0.0591235 0.0321661 
0.0103034 -0.0589626 0.0328905 0.0046901 -0.0587846 0.0336072 -0.00149381 -0.0577775 0.0338388 
-0.00770198 -0.0567352 0.0340497 -0.014294 -0.0549913 0.0336838 -0.020911 -0.0532016 0.0332803 
-0.0277253 -0.050925 0.0322514 -0.0345572 -0.0486051 0.0311669 -0.0413823 -0.0459614 0.0294682 
-0.0482066 -0.043281 0.0276997 -0.0547648 -0.0401593 0.0254224 -0.0612859 -0.036976 0.023074 
-0.0672156 -0.0326476 0.0204848 -0.0730468 -0.0281284 0.0178554 -0.0779182 -0.0208772 0.0155174 
-0.0826022 -0.013093 0.0132361 -0.0857757 -3.44618e-05 0.0121383 -0.0886094 0.0142109 0.0113067 
-0.0884183 0.0367468 0.0128672 -0.0874516 0.0614085 0.015041 -0.0793958 0.0963214 0.0205334 
-0.0692878 0.134202 0.0269863 -0.0456525 0.179634 0.0353924 -0.01763 0.227515 0.0444319 
0.0247948 0.270674 0.0491545 0.0724205 0.312129 0.0523182 0.120218 0.331976 0.0445065 
0.168085 0.343181 0.0323046 0.198356 0.329471 0.013371 0.220863 0.304769 -0.00853236 
0.225201 0.265522 -0.0273223 0.0205844 -0.0521544 0.0271291 0.0181457 -0.0524269 0.0280804 
0.015707 -0.0526993 0.0290317 0.0105483 -0.0522673 0.0296843 0.005333 -0.0518205 0.0303305 
-0.000475165 -0.0506905 0.0305643 -0.00630853 -0.0495314 0.0307804 -0.0125978 -0.0478308 0.0304795 
-0.0189167 -0.0460949 0.0301448 -0.0255078 -0.0440361 0.0292045 -0.0321231 -0.0419487 0.0282104 
-0.0387172 -0.0397078 0.0265516 -0.0453088 -0.0374494 0.0248172 -0.0513932 -0.0349198 0.0224226 
-0.0574069 -0.0323524 0.0199359 -0.0622037 -0.0287517 0.016924 -0.0667979 -0.0249788 0.0138245 
-0.0693206 -0.0183865 0.0105523 -0.0714391 -0.0112441 0.00724622 -0.0705457 0.0016088 0.00437451 
-0.0689747 0.0157466 0.00160051 -0.0630139 0.0388775 -3.25855e-05 -0.0559276 0.0643144 -0.00137314 
-0.0419099 0.100509 -0.00136695 -0.0258856 0.139819 -0.000970899 -0.000244291 0.186723 -0.000753845 
0.028516 0.236091 -0.000594845 0.0641388 0.281454 -0.00444466 0.10224 0.325371 -0.00974209 
0.135218 0.34972 -0.0213344 0.166147 0.366241 -0.0354447 0.181007 0.357518 -0.0513541 
0.188778 0.337658 -0.0680572 0.183619 0.299905 -0.0800848 0.0205996 -0.0473281 0.0248311 
0.0183182 -0.047295 0.0257026 0.0160369 -0.0472618 0.026574 0.0111811 -0.0466014 0.027204 
0.00627175 -0.0459279 0.0278289 0.000724369 -0.0446755 0.0281052 -0.00485014 -0.0433984 0.0283666 
-0.0109731 -0.0417128 0.0281631 -0.0171318 -0.0400006 0.0279292 -0.0236645 -0.0381465 0.0271018 
-0.0302303 -0.0362798 0.0262218 -0.0367936 -0.0345292 0.0246124 -0.0433566 -0.0327919 0.0229202 
-0.0491827 -0.0311806 0.0203866 -0.0549059 -0.029587 0.0177355 -0.0587196 -0.0274533 0.0142303 
-0.062215 -0.0252296 0.0105827 -0.0623525 -0.0205908 0.00626573 -0.0618348 -0.0154807 0.00181818 
-0.0566329 -0.00469802 -0.00289777 -0.0503772 0.00736105 -0.00767411 -0.0384328 0.0287431 -0.0123357 
-0.0250297 0.0525156 -0.0169678 -0.00505602 0.0872841 -0.0217127 0.0168198 0.125236 -0.0264903 
0.0449833 0.171002 -0.0329554 0.0751862 0.219302 -0.0399678 0.106209 0.265427 -0.051178 
0.137527 0.310767 -0.0639041 0.158108 0.340084 -0.0805362 0.174393 0.362993 -0.0987308 
0.17331 0.361354 -0.114622 0.164565 0.348887 -0.129498 0.146653 0.31545 -0.136542 
0.020713 -0.0426845 0.0226295 0.0185836 -0.0423591 0.0234316 0.0164541 -0.0420338 0.0242336 
0.0118882 -0.0411518 0.0248521 0.00727156 -0.0402582 0.0254668 0.00196595 -0.0388816 0.0257981 
-0.00336895 -0.0374845 0.0261174 -0.00935533 -0.035804 0.0260261 -0.0153842 -0.0341051 0.025908 
-0.0219093 -0.0324432 0.0252111 -0.0284786 -0.0307847 0.0244627 -0.0350984 -0.0295263 0.0229201 
-0.041724 -0.0283135 0.0212872 -0.0474247 -0.0276722 0.0186242 -0.0529963 -0.0271107 0.0158174 
-0.0559858 -0.0266039 0.0118114 -0.058545 -0.0261061 0.00760551 -0.0564188 -0.0237401 0.00222209 
-0.0533785 -0.0210094 -0.00339109 -0.0438866 -0.0127402 -0.00995106 -0.0329432 -0.00322467 -0.0167241 
-0.0149453 0.0159912 -0.0243191 0.00486139 0.0376943 -0.032125 0.0309071 0.0707507 -0.0413727 
0.058759 0.107094 -0.0510378 0.0897381 0.151498 -0.0638459 0.121732 0.198517 -0.0776733 
0.148787 0.245061 -0.0961145 0.174059 0.291433 -0.116222 0.182858 0.325178 -0.138298 
0.185067 0.353872 -0.161163 0.168045 0.35893 -0.177639 0.14254 0.35356 -0.191297 
0.111424 0.324703 -0.193489 0.0212631 -0.0388524 0.0208567 0.0192614 -0.0382944 0.0216356 
0.0172597 -0.0377365 0.0224144 0.0129255 -0.0366633 0.0230708 0.00854275 -0.0355793 0.0237247 
0.00339444 -0.0340707 0.0241665 -0.00178641 -0.0325439 0.0245994 -0.00776824 -0.0308245 0.0246865 
-0.0138023 -0.0290925 0.024751 -0.0205464 -0.0275682 0.0242621 -0.0273536 -0.0260623 0.023724 
-0.034418 -0.025304 0.0223248 -0.0415116 -0.0246306 0.0208278 -0.0476777 -0.0251891 0.018078 
-0.0537144 -0.0259195 0.0151534 -0.056587 -0.02775 0.0106137 -0.0589321 -0.029764 0.00580473 
-0.0550827 -0.0310896 -0.000742169 -0.0500245 -0.0322809 -0.00762818 -0.0363245 -0.0284952 -0.0160313 
-0.0206801 -0.0235896 -0.0247757 0.00368158 -0.00839429 -0.0348823 0.0302784 0.00943937 -0.0453382 
0.0629124 0.0395141 -0.0579852 0.097294 0.0731325 -0.0712666 0.132392 0.115183 -0.0889104 
0.167723 0.159968 -0.107969 0.193627 0.205405 -0.133066 0.216126 0.251078 -0.160344 
0.215878 0.286845 -0.189663 0.206531 0.31865 -0.219799 0.173591 0.328678 -0.23954 
0.130242 0.329097 -0.254695 0.0839206 0.305991 -0.252615 0.0218793 -0.0351736 0.0191488 
0.0200033 -0.0343932 0.019912 0.0181273 -0.0336128 0.0206752 0.0140198 -0.0323536 0.0213788 
0.00986588 -0.0310843 0.0220812 0.00486646 -0.0294409 0.0226463 -0.000168919 -0.0277816 0.0232055 
-0.00616463 -0.0260093 0.0234891 -0.0122229 -0.0242296 0.0237547 -0.0192303 -0.0228145 0.0234989 
-0.026322 -0.0214318 0.0231966 -0.0339299 -0.0211329 0.0219703 -0.0415965 -0.0209572 0.020639 
-0.0484152 -0.0226829 0.0178245 -0.0551156 -0.0246739 0.0148029 -0.0581438 -0.0288767 0.00972091 
-0.06056 -0.0334482 0.00429548 -0.0552358 -0.0386603 -0.00346908 -0.0484014 -0.0439975 -0.01169 
-0.0305328 -0.0450484 -0.0219922 -0.0101815 -0.0451349 -0.0327627 0.0207285 -0.0342371 -0.0453151 
0.0543459 -0.0205229 -0.0583245 0.0937411 0.006499 -0.0740913 0.134809 0.0373731 -0.0906563 
0.174081 0.0768908 -0.112692 0.212771 0.119212 -0.136501 0.237688 0.162818 -0.167819 
0.257632 0.206888 -0.201849 0.248796 0.243369 -0.238218 0.228448 0.276815 -0.275523 
0.180207 0.290782 -0.298587 0.11966 0.296155 -0.315368 0.0587142 0.279005 -0.30909 
0.0228343 -0.0322809 0.0177736 0.0210734 -0.0313298 0.0185597 0.0193125 -0.0303787 0.0193458 
0.0154063 -0.02896 0.0201444 0.0114553 -0.0275315 0.0209434 0.00656156 -0.0257398 0.0216965 
0.00162773 -0.0239327 0.0224478 -0.00447633 -0.0220359 0.0230208 -0.0106567 -0.0201332 0.0235821 
-0.0181544 -0.0186823 0.0236876 -0.0257692 -0.0172716 0.0237526 -0.0344278 -0.0172245 0.0228501 
-0.043205 -0.0173324 0.0218377 -0.0516355 -0.0200584 0.0190708 -0.0600177 -0.0231498 0.016059 
-0.0645987 -0.0299037 0.010391 -0.0685462 -0.0372679 0.0042803 -0.0630219 -0.047365 -0.00497962 
-0.0556494 -0.0579953 -0.014854 -0.0338149 -0.0656929 -0.0273422 -0.00872648 -0.0727307 -0.0404184 
0.0296784 -0.0675498 -0.0550803 0.0714979 -0.0592359 -0.0701488 0.118541 -0.0356323 -0.0876025 
0.167096 -0.00760257 -0.105747 0.21082 0.0284649 -0.129896 0.252977 0.0671393 -0.155993 
0.277758 0.105199 -0.191304 0.296264 0.143038 -0.229942 0.281192 0.17353 -0.27237 
0.25269 0.201083 -0.316315 0.192311 0.213714 -0.343002 0.117869 0.21976 -0.362076 
0.0452806 0.20961 -0.351981 0.02383 -0.0295149 0.0164407 0.0221844 -0.0284019 0.0172544 
0.0205388 -0.027289 0.018068 0.0168348 -0.0257168 0.0189681 0.013088 -0.024135 0.01987 
0.00830222 -0.0221948 0.0208213 0.00347226 -0.0202394 0.0217747 -0.00274041 -0.0182055 0.0226537 
-0.00904323 -0.0161666 0.0235279 -0.0170473 -0.0146432 0.0240218 -0.0252026 -0.0131657 0.024482 
-0.0349759 -0.0132903 0.0239414 -0.044933 -0.0135969 0.0232872 -0.0551459 -0.0171777 0.0206054 
-0.0653945 -0.0212154 0.0176406 -0.0718544 -0.0303105 0.0113859 -0.0776829 -0.0402484 0.00458291 
-0.0723357 -0.0550362 -0.00626518 -0.0648079 -0.0707703 -0.0179026 -0.0390945 -0.0850634 -0.0327365 
-0.00928935 -0.0990324 -0.0482896 0.0369127 -0.0995829 -0.0650714 0.0873191 -0.0966928 -0.0821682 
0.142185 -0.076493 -0.100986 0.198341 -0.0512824 -0.120302 0.246165 -0.0188326 -0.145951 
0.291287 0.0159652 -0.173653 0.315422 0.0479678 -0.212044 0.331979 0.0789611 -0.254293 
0.310883 0.10266 -0.301586 0.274726 0.123441 -0.350896 0.203554 0.13404 -0.380434 
0.116933 0.140148 -0.401247 0.0342716 0.13681 -0.38777 0.0250699 -0.0275089 0.0153614 
0.0235406 -0.0262874 0.0162308 0.0220112 -0.0250659 0.0171001 0.0185163 -0.0233759 0.0181401 
0.0149805 -0.0216762 0.0191835 0.0103163 -0.0195862 0.0203927 0.00560409 -0.0174797 0.021609 
-0.000718715 -0.0152334 0.022894 -0.00714653 -0.0129781 0.0241835 -0.0157526 -0.0111621 0.0252283 
-0.0245523 -0.00938506 0.0262513 -0.0358249 -0.00920078 0.0263018 -0.0473786 -0.00919749 0.0262417 
-0.0603971 -0.0127595 0.0238698 -0.0736199 -0.0168189 0.0211753 -0.0839151 -0.0269967 0.0143297 
-0.0937224 -0.0381943 0.00679226 -0.090816 -0.0565073 -0.00620088 -0.0854288 -0.0762088 -0.0202585 
-0.0563586 -0.0967901 -0.0383973 -0.0219596 -0.117569 -0.0574543 0.033853 -0.123939 -0.076418 
0.0951563 -0.126614 -0.0953577 0.158892 -0.109731 -0.113603 0.223332 -0.087188 -0.131648 
0.273147 -0.0593604 -0.155105 0.31822 -0.0298191 -0.180318 0.338654 -0.00694388 -0.21631 
0.350191 0.0135241 -0.256193 0.324339 0.0256049 -0.301183 0.283531 0.0343308 -0.348214 
0.209628 0.0387361 -0.375962 0.121126 0.0412353 -0.395203 0.0378102 0.043582 -0.38095 
0.0263287 -0.0256044 0.0143072 0.0249165 -0.0242829 0.015234 0.0235044 -0.0229614 0.0161608 
0.0202228 -0.0211616 0.0173428 0.0169022 -0.0193517 0.0185302 0.0123694 -0.0171174 0.0200016 
0.00778505 -0.0148651 0.021485 0.00137013 -0.0124038 0.0231854 -0.00516416 -0.00992887 0.0248998 
-0.0143466 -0.00779552 0.0265152 -0.0237644 -0.00569254 0.0281218 -0.0365156 -0.00512051 0.0288003 
-0.0496456 -0.00472245 0.0293733 -0.0654969 -0.0080659 0.0273662 -0.0817279 -0.0119314 0.0249991 
-0.0960205 -0.0227605 0.0176106 -0.10999 -0.0347502 0.00938508 -0.109849 -0.0558267 -0.00578043 
-0.106954 -0.0786762 -0.0223001 -0.0747367 -0.104615 -0.0438864 -0.035922 -0.131249 -0.0666128 
0.029606 -0.142933 -0.0878076 0.101984 -0.150783 -0.10861 0.174583 -0.137461 -0.126032 
0.247246 -0.118011 -0.142477 0.298637 -0.0953053 -0.163302 0.343129 -0.0715439 -0.185547 
0.359432 -0.0579577 -0.218524 0.365556 -0.0480459 -0.255376 0.335133 -0.047324 -0.29726 
0.290091 -0.050278 -0.341157 0.214456 -0.0519379 -0.366606 0.125325 -0.0530268 -0.383917 
0.0424658 -0.0455616 -0.369215 0.0277222 -0.024427 0.0134327 0.0264347 -0.0230666 0.0144292 
0.0251472 -0.0217062 0.0154258 0.0221086 -0.0198536 0.0167664 0.0190336 -0.0179908 0.0181141 
0.0147026 -0.0156507 0.0198784 0.0103181 -0.0132903 0.0216604 0.00394018 -0.0105949 0.0238427 
-0.00256778 -0.00787755 0.0260511 -0.0121426 -0.00525049 0.0283789 -0.02199 -0.00263147 0.0307174 
-0.0360707 -0.0011062 0.0322894 -0.0506325 0.000294773 0.0337742 -0.0695123 -0.00139927 0.0325249 
-0.0889946 -0.00352518 0.0308941 -0.108446 -0.0119135 0.0233064 -0.127893 -0.0213456 0.014726 
-0.13284 -0.0397254 -0.00280757 -0.134958 -0.0598511 -0.0220881 -0.101098 -0.0844792 -0.0481449 
-0.0591438 -0.11012 -0.0757264 0.0168507 -0.123499 -0.0995054 0.101573 -0.133733 -0.122309 
0.18299 -0.125713 -0.137111 0.263449 -0.112409 -0.149597 0.313434 -0.098406 -0.164627 
0.353534 -0.0841763 -0.180483 0.362621 -0.0810369 -0.206033 0.360509 -0.0819022 -0.235084 
0.326849 -0.0906827 -0.26812 0.280569 -0.102629 -0.30275 0.210349 -0.109431 -0.322247 
0.129568 -0.113963 -0.335068 0.0551269 -0.105433 -0.322253 0.0291161 -0.0233261 0.0125706 
0.0279538 -0.0219345 0.013636 0.0267915 -0.020543 0.0147013 0.0239995 -0.0186469 0.0161985 
0.0211735 -0.0167402 0.0177047 0.0170549 -0.0143051 0.019759 0.0128814 -0.0118475 0.0218365 
0.0065656 -0.00892856 0.0244984 0.000110175 -0.00597955 0.0271983 -0.00980377 -0.00286285 0.0302407 
-0.0200251 0.000268749 0.0333136 -0.0353326 0.00277112 0.0357955 -0.0512181 0.00520198 0.0382102 
-0.0729491 0.00526583 0.0377688 -0.0954958 0.00499941 0.0369288 -0.119863 -0.000628707 0.0292535 
-0.144533 -0.00715044 0.020439 -0.154415 -0.0221097 0.000735656 -0.161413 -0.0387152 -0.0210924 
-0.126191 -0.0609348 -0.0513707 -0.0814693 -0.0844175 -0.0835503 0.00421813 -0.0988274 -0.109778 
0.10041 -0.110911 -0.13448 0.18992 -0.108514 -0.146733 0.277495 -0.101926 -0.155383 
0.325884 -0.0971485 -0.164771 0.361565 -0.0929585 -0.174398 0.363709 -0.100281 -0.192654 
0.353744 -0.111762 -0.214026 0.317242 -0.129609 -0.23838 0.270125 -0.150004 -0.263928 
0.205584 -0.16167 -0.277623 0.133357 -0.169484 -0.286089 0.0674805 -0.160276 -0.27516 
0.0305132 -0.0228981 0.0118182 0.0294813 -0.0215438 0.0129441 0.0284493 -0.0201896 0.0140701 
0.0259343 -0.0183309 0.0157066 0.0233885 -0.0164617 0.0173537 0.019576 -0.0140256 0.0196728 
0.0157096 -0.0115655 0.0220204 0.00967833 -0.00851727 0.0251401 0.00350594 -0.00543074 0.0283102 
-0.00627828 -0.0018601 0.0320854 -0.0163835 0.00175355 0.0359143 -0.0320141 0.005443 0.0394521 
-0.0482725 0.00914105 0.0429568 -0.0712949 0.0119176 0.0437634 -0.0952611 0.0145655 0.0441936 
-0.122397 0.0145084 0.0374109 -0.150062 0.0140005 0.0294261 -0.163534 0.00883191 0.00929799 
-0.174237 0.00275399 -0.0131995 -0.140115 -0.00739575 -0.0455088 -0.0959078 -0.0184617 -0.0800258 
-0.00733428 -0.0280675 -0.107512 0.0926152 -0.0372989 -0.133196 0.183849 -0.0433545 -0.143538 
0.27256 -0.0484907 -0.149438 0.317694 -0.0575401 -0.154517 0.348693 -0.0678586 -0.159329 
0.346305 -0.0857811 -0.171455 0.33186 -0.10645 -0.186222 0.295994 -0.129533 -0.203359 
0.251559 -0.153583 -0.221445 0.195029 -0.167671 -0.230665 0.133162 -0.177365 -0.235974 
0.0771286 -0.170864 -0.22691 0.0318978 -0.022522 0.0110702 0.0309957 -0.0212109 0.0122542 
0.0300936 -0.0198998 0.0134383 0.0278561 -0.0180866 0.0152093 0.0255908 -0.016263 0.0169925 
0.0220896 -0.0138376 0.0195681 0.0185359 -0.0113867 0.0221774 0.0128066 -0.00822682 0.0257421 
0.00693545 -0.00502069 0.0293691 -0.00267378 -0.00102259 0.0338593 -0.0126152 0.00304589 0.0384261 
-0.0284633 0.00788413 0.0430023 -0.0449825 0.0128098 0.0475795 -0.0690737 0.0182482 0.0496379 
-0.0942215 0.0237582 0.0513448 -0.123734 0.0292112 0.0455345 -0.153975 0.0346546 0.0384713 
-0.17062 0.0392064 0.0181725 -0.184612 0.0435843 -0.0047088 -0.151782 0.0454451 -0.0386014 
-0.108417 0.0467396 -0.0749716 -0.0180351 0.041999 -0.103453 0.0844024 0.035711 -0.129913 
0.176398 0.0214601 -0.138573 0.265371 0.00490407 -0.14208 0.307209 -0.017615 -0.14326 
0.333759 -0.0420681 -0.143685 0.327324 -0.0702385 -0.150049 0.308978 -0.0997511 -0.158559 
0.274112 -0.127806 -0.16882 0.232637 -0.155277 -0.17978 0.184118 -0.171675 -0.184739 
0.132492 -0.183187 -0.18705 0.0861489 -0.179438 -0.179803 0.0331408 -0.0227294 0.0103722 
0.0323631 -0.021528 0.0115859 0.0315854 -0.0203266 0.0127996 0.02963 -0.0186494 0.0146512 
0.02765 -0.0169623 0.0165162 0.0245201 -0.0146788 0.0192558 0.0213413 -0.0123699 0.0220326 
0.0161098 -0.00929562 0.0258967 0.0107445 -0.00617144 0.0298316 0.00181943 -0.00204368 0.0348369 
-0.00742198 0.00217327 0.0399374 -0.0223001 0.00772947 0.0453553 -0.0378188 0.0134378 0.0508093 
-0.0604753 0.0209673 0.0541601 -0.0841278 0.0287508 0.0572174 -0.111596 0.0390278 0.0532774 
-0.1397 0.0497204 0.0481713 -0.154833 0.0632013 0.0305588 -0.167435 0.0772263 0.010506 
-0.138052 0.0904308 -0.0199334 -0.0992229 0.103451 -0.0527099 -0.0191555 0.104263 -0.0792257 
0.0714858 0.101945 -0.104136 0.153416 0.0823885 -0.113703 0.232824 0.0578424 -0.118827 
0.270919 0.0258703 -0.120722 0.295615 -0.0085103 -0.121568 0.290611 -0.0429701 -0.126322 
0.274883 -0.0774585 -0.132487 0.2451 -0.107503 -0.139696 0.209696 -0.135771 -0.147323 
0.169208 -0.153196 -0.150427 0.126478 -0.165839 -0.151535 0.0881082 -0.165349 -0.145553 
0.0343661 -0.0229665 0.00967488 0.0337116 -0.021878 0.0109156 0.033057 -0.0207896 0.0121562 
0.0313813 -0.0192532 0.0140834 0.0296844 -0.0177075 0.0160248 0.0269249 -0.0155735 0.0189194 
0.0241202 -0.0134144 0.0218545 0.0193903 -0.0104393 0.0260023 0.014535 -0.00741098 0.0302292 
0.00631026 -0.0031792 0.0357245 -0.0022139 0.00115955 0.0413325 -0.0160791 0.00738223 0.0475558 
-0.0305513 0.013819 0.0538491 -0.0516841 0.0233313 0.0584519 -0.0737462 0.0332728 0.0628188 