# vtk DataFile Version 3.0
vtk output
ASCII
DATASET RECTILINEAR_GRID
DIMENSIONS 34 34 34
X_COORDINATES 34 float
-10 -9.79798 -9.59596 -9.39394 -9.19192 -8.9899 -8.78788 -8.58586 -8.38384 
-8.18182 -7.9798 -7.77778 -7.57576 -7.37374 -7.17172 -6.9697 -6.76768 -6.56566 
-6.36364 -6.16162 -5.9596 -5.75758 -5.55556 -5.35354 -5.15152 -4.9495 -4.74747 
-4.54545 -4.34343 -4.14141 -3.93939 -3.73737 -3.53535 -3.33333 
Y_COORDINATES 34 float
-10 -9.79798 -9.59596 -9.39394 -9.19192 -8.9899 -8.78788 -8.58586 -8.38384 
-8.18182 -7.9798 -7.77778 -7.57576 -7.37374 -7.17172 -6.9697 -6.76768 -6.56566 
-6.36364 -6.16162 -5.9596 -5.75758 -5.55556 -5.35354 -5.15152 -4.9495 -4.74747 
-4.54545 -4.34343 -4.14141 -3.93939 -3.73737 -3.53535 -3.33333 
Z_COORDINATES 34 float
-3.33333 -3.13131 -2.92929 -2.72727 -2.52525 -2.32323 -2.12121 -1.91919 -1.71717 
-1.51515 -1.31313 -1.11111 -0.909091 -0.707071 -0.505051 -0.30303 -0.10101 0.10101 
0.30303 0.50505 0.70707 0.909091 1.11111 1.31313 1.51515 1.71717 1.91919 
2.12121 2.32323 2.52525 2.72727 2.92929 3.13131 3.33333 
POINT_DATA 39304
VECTORS grad float
0.0298719 0.0646513 0.0415888 0.0286793 0.0659967 0.0423782 0.0274866 0.0673422 0.0431675 
0.0250266 0.0684226 0.0435829 0.0225401 0.0694975 0.0439905 0.0199213 0.0702652 0.0439734 
0.0172968 0.0710198 0.0439383 0.0146685 0.0714534 0.0434643 0.0120399 0.0718661 0.0429617 
0.00953134 0.0719752 0.0420435 0.00703341 0.0720572 0.0410883 0.00475712 0.0718809 0.0397718 
0.00250601 0.0716751 0.0384141 0.000544775 0.0712752 0.0367673 -0.00137601 0.0708482 0.0350801 
-0.00297598 0.0702997 0.03318 -0.00452248 0.0697309 0.0312445 -0.00575131 0.0691129 0.0291657 
-0.00691817 0.0684853 0.027059 -0.00779727 0.0678767 0.0248661 -0.00861162 0.0672723 0.0226537 
-0.00918824 0.0667513 0.0203998 -0.0097039 0.0662518 0.0181351 -0.0100497 0.0659005 0.0158661 
-0.0103464 0.0655922 0.0135959 -0.0105614 0.0654951 0.0113595 -0.01075 0.0654664 0.0091342 
-0.0109676 0.0656915 0.00699191 -0.0111957 0.0660081 0.0048796 -0.0115767 0.0665615 0.00291801 
-0.012019 0.0672096 0.00101671 -0.012725 0.06798 -0.000643793 -0.0135474 0.0688043 -0.00219806 
-0.014694 0.0695375 -0.00340172 0.0312174 0.0646149 0.0437366 0.0299578 0.0659794 0.0446282 
0.0286981 0.067344 0.0455198 0.0260935 0.0684395 0.0460037 0.0234609 0.0695294 0.0464791 
0.0206789 0.0703051 0.0464883 0.0178905 0.0710674 0.0464777 0.0150959 0.0714993 0.0459846 
0.0123009 0.0719098 0.0454601 0.00963817 0.0720061 0.0444807 0.0069872 0.0720746 0.0434608 
0.00458215 0.0718742 0.042049 0.00220506 0.0716434 0.0405928 0.000149564 0.0712092 0.0388272 
-0.00186106 0.0707466 0.0370185 -0.00351642 0.0701552 0.034986 -0.00511256 0.0695424 0.0329162 
-0.00635688 0.0688752 0.0306977 -0.00753255 0.0681973 0.0284502 -0.0083874 0.0675354 0.0261124 
-0.00917006 0.066877 0.0237543 -0.00968189 0.0663024 0.0213481 -0.0101243 0.0657493 0.0189295 
-0.0103633 0.0653524 0.0164962 -0.0105434 0.0650007 0.0140586 -0.0106131 0.0648832 0.0116419 
-0.010647 0.0648417 0.00923188 -0.0107005 0.0650993 0.00689339 -0.0107611 0.0654648 0.00458072 
-0.0110046 0.0661313 0.00241542 -0.0113213 0.066918 0.000309061 -0.0119818 0.0678901 -0.00154408 
-0.0127941 0.068944 -0.00328551 -0.0140515 0.0699431 -0.00464166 0.0325629 0.0645785 0.0458844 
0.0312363 0.0659621 0.0468782 0.0299097 0.0673457 0.047872 0.0271604 0.0684564 0.0484245 
0.0243816 0.0695613 0.0489677 0.0214364 0.070345 0.0490032 0.0184842 0.0711149 0.0490171 
0.0155233 0.0715453 0.0485049 0.0125619 0.0719535 0.0479585 0.009745 0.0720371 0.0469178 
0.00694098 0.0720919 0.0458333 0.00440719 0.0718676 0.0443263 0.00190412 0.0716116 0.0427714 
-0.000245645 0.0711431 0.0408871 -0.00234611 0.070645 0.0389569 -0.00405685 0.0700108 0.0367919 
-0.00570264 0.0693539 0.0345878 -0.00696245 0.0686374 0.0322297 -0.00814694 0.0679093 0.0298415 
-0.00897753 0.0671941 0.0273588 -0.0097285 0.0664817 0.0248549 -0.0101755 0.0658535 0.0222964 
-0.0105447 0.0652469 0.0197239 -0.0106768 0.0648043 0.0171263 -0.0107404 0.0644091 0.0145213 
-0.0106648 0.0642713 0.0119242 -0.010544 0.064217 0.00932957 -0.0104335 0.0645071 0.00679489 
-0.0103266 0.0649216 0.00428185 -0.0104325 0.065701 0.00191283 -0.0106235 0.0666265 -0.000398582 
-0.0112386 0.0678003 -0.00244436 -0.0120407 0.0690837 -0.00437296 -0.0134089 0.0703487 -0.00588161 
0.0339839 0.0642906 0.0479556 0.0325863 0.0657076 0.0490594 0.0311888 0.0671247 0.0501633 
0.0282839 0.0682631 0.0507894 0.0253477 0.0693958 0.0514056 0.0222227 0.0701949 0.0514681 
0.0190897 0.0709798 0.0515071 0.0159419 0.0714068 0.0509713 0.0127931 0.0718104 0.0503981 
0.00979979 0.0718675 0.049287 0.00682031 0.0718936 0.048128 0.00413621 0.0716172 0.0465131 
0.00148568 0.0713065 0.0448464 -0.000777249 0.0707609 0.0428291 -0.00298609 0.0701827 0.0407628 
-0.0047672 0.069449 0.0384508 -0.00647703 0.0686894 0.0360978 -0.00776281 0.0678542 0.0335853 
-0.00896585 0.0670043 0.0310417 -0.00977659 0.0661538 0.028398 -0.0104991 0.0653032 0.0257318 
-0.0108737 0.0645272 0.0230007 -0.0111592 0.0637703 0.020253 -0.0111513 0.0631802 0.0174627 
-0.0110585 0.0626384 0.01466 -0.0107595 0.0623919 0.0118425 -0.0103937 0.0622413 0.00902008 
-0.00998601 0.0625381 0.00623591 -0.00956325 0.0629966 0.00346554 -0.00936276 0.0639906 0.000828037 
-0.00925117 0.0651987 -0.00175632 -0.00966808 0.0668354 -0.00406496 -0.0103181 0.0686611 -0.00625196 
-0.0117176 0.0705756 -0.00797808 0.0354065 0.0639974 0.0500252 0.0339379 0.0654482 0.0512393 
0.0324693 0.0668989 0.0524533 0.0294086 0.0680655 0.0531532 0.0263147 0.0692261 0.0538424 
0.0230096 0.0700408 0.053932 0.0196954 0.0708408 0.053996 0.0163602 0.0712644 0.0534366 
0.0130237 0.0716635 0.0528365 0.0098535 0.0716936 0.0516547 0.00669809 0.0716909 0.0504211 
0.00386323 0.0713618 0.0486979 0.00106479 0.0709956 0.0469192 -0.00131169 0.0703722 0.0447685 
-0.0036293 0.0697128 0.042566 -0.00548109 0.0688785 0.0401066 -0.00725525 0.068015 0.0376045 
-0.00856722 0.0670597 0.0349373 -0.00978901 0.0660864 0.0322379 -0.01058 0.065099 0.0294329 
-0.0112741 0.0641085 0.0266041 -0.0115762 0.0631827 0.0237 -0.0117779 0.0622734 0.0207766 
-0.0116292 0.0615337 0.017793 -0.0113792 0.060843 0.014792 -0.0108552 0.0604861 0.0117532 
-0.0102423 0.0602374 0.0087021 -0.00953478 0.0605405 0.00566734 -0.00879304 0.0610429 0.00263845 
-0.00828264 0.0622535 -0.000268879 -0.00786477 0.0637473 -0.00312759 -0.00808034 0.0658523 -0.00570054 
-0.00857537 0.0682269 -0.00814743 -0.0100044 0.0707987 -0.0100924 0.0368858 0.0632767 0.0518538 
0.0353446 0.064754 0.0531778 0.0338034 0.0662313 0.0545018 0.03058 0.0674247 0.0552752 
0.0273215 0.0686122 0.0560372 0.0238218 0.0694456 0.0561518 0.0203118 0.0702639 0.0562388 
0.016768 0.0706883 0.0556511 0.013222 0.0710871 0.0550193 0.00984851 0.0710909 0.0537589 
0.00649036 0.0710597 0.0524427 0.00347595 0.0706709 0.0506013 0.000500609 0.0702415 0.0487002 
-0.00201791 0.0695222 0.0464047 -0.00447268 0.0687625 0.0440541 -0.00642185 0.067797 0.0414348 
-0.00828676 0.0667974 0.0387708 -0.00965019 0.0656779 0.0359351 -0.0109158 0.064535 0.033066 
-0.0117118 0.06335 0.0300828 -0.0124021 0.0621554 0.027074 -0.0126516 0.0609925 0.0239734 
-0.012788 0.0598378 0.0208492 -0.0124927 0.0588183 0.0176371 -0.0120724 0.057838 0.0143996 
-0.0112475 0.057192 0.0110875 -0.0102914 0.0566544 0.00775115 -0.00909471 0.0567841 0.00439449 
-0.00781121 0.0571548 0.00103049 -0.00670507 0.0585145 -0.00223427 -0.00566987 0.0602698 -0.00545934 
-0.00540296 0.0629723 -0.00839264 -0.005475 0.0660926 -0.0111972 -0.00677434 0.0696039 -0.0134529 
0.0383675 0.0625377 0.0536722 0.0367536 0.0640413 0.0551061 0.0351397 0.0655449 0.05654 
0.0317533 0.0667651 0.0573869 0.02833 0.0679794 0.0582217 0.0246351 0.0688315 0.0583612 
0.0209287 0.0696684 0.0584712 0.0171754 0.0700938 0.0578548 0.0134189 0.0704924 0.0571911 
0.00984101 0.07047 0.0558519 0.00627899 0.0704102 0.0544528 0.00308381 0.0699614 0.0524927 
-6.96661e-05 0.0694684 0.0504689 -0.00273142 0.0686526 0.0480279 -0.00532457 0.0677916 0.0455288 
-0.00737226 0.0666939 0.0427491 -0.00932904 0.0655566 0.0399227 -0.010745 0.0642711 0.0369179 
-0.0120555 0.0629567 0.0338784 -0.0128575 0.0615713 0.0307163 -0.0135452 0.0601701 0.0275267 
-0.0137429 0.0587665 0.0242286 -0.0138149 0.0573622 0.0209026 -0.0133727 0.0560575 0.0174606 
-0.0127816 0.0547815 0.013985 -0.0116525 0.0538388 0.0103973 -0.0103489 0.0530042 0.00677326 
-0.00865512 0.0529528 0.00309168 -0.00682038 0.0531844 -0.000610686 -0.00510634 0.0546904 -0.00423661 
-0.00344058 0.0567062 -0.00783196 -0.00267923 0.0600116 -0.0111297 -0.00231688 0.0638861 -0.0142961 
-0.00347978 0.0683489 -0.0168664 0.0398933 0.0614013 0.0550554 0.0382088 0.0629299 0.0565882 
0.0365243 0.0644584 0.0581211 0.0329744 0.065713 0.0590343 0.0293857 0.0669619 0.0599346 
0.0254852 0.0678471 0.0600947 0.0215714 0.0687168 0.0602232 0.0175864 0.0691585 0.0595753 
0.0135967 0.0695724 0.0588767 0.0097819 0.0695336 0.0574558 0.00598271 0.0694545 0.0559706 
0.00256758 0.0689434 0.0538877 -0.000803895 0.0683831 0.0517368 -0.00365031 0.0674523 0.0491446 
-0.00642347 0.0664697 0.0464907 -0.00861011 0.0652051 0.0435425 -0.010699 0.0638935 0.0405453 
-0.0122079 0.0623945 0.0373605 -0.0136036 0.0608589 0.0341392 -0.0144591 0.0592153 0.0307828 
-0.0151931 0.0575474 0.027396 -0.0154009 0.055826 0.0238764 -0.0154737 0.0540909 0.0203227 
-0.0149437 0.0523712 0.0166109 -0.0142392 0.0506559 0.0128534 -0.0127803 0.0491834 0.00892604 
-0.0110767 0.0477896 0.00494358 -0.0086474 0.0472437 0.000845104 -0.00595611 0.047004 -0.00329526 
-0.0031654 0.0484663 -0.00739452 -0.000334931 0.0506094 -0.0114773 0.0014149 0.0546467 -0.0152594 
0.00268798 0.0595195 -0.0189088 0.00192729 0.0652804 -0.0219108 0.0414219 0.060239 0.0564102 
0.0396669 0.0617924 0.0580413 0.0379119 0.0633459 0.0596724 0.0341987 0.0646354 0.0606514 
0.0304446 0.0659194 0.0616168 0.0263377 0.0668384 0.0617971 0.0222158 0.067742 0.0619439 
0.0179976 0.0682011 0.0612642 0.0137731 0.0686312 0.0605306 0.00971942 0.0685766 0.0590277 
0.00568089 0.0684788 0.0574564 0.00204325 0.0679051 0.0552504 -0.00154881 0.0672774 0.0529722 
-0.00458259 0.0662304 0.0502282 -0.00753847 0.065125 0.0474191 -0.00986671 0.0636912 0.0443019 
-0.0120903 0.0622027 0.0411333 -0.0136948 0.0604871 0.0377679 -0.0151784 0.0587272 0.0343641 
-0.0160904 0.0568216 0.0308123 -0.0168739 0.0548831 0.0272273 -0.0170958 0.052839 0.0234845 
-0.0171738 0.0507678 0.0197014 -0.0165599 0.0486246 0.0157173 -0.0157457 0.0464607 0.0116751 
-0.0139552 0.0444431 0.00740384 -0.0118481 0.0424731 0.00305835 -0.00866784 0.0414121 -0.00146301 
-0.00510009 0.0406794 -0.00604788 -0.00120215 0.0420857 -0.0106278 0.00282786 0.0443475 -0.0152057 
0.00559839 0.0491249 -0.0194799 0.00781327 0.0550121 -0.0236202 0.00747212 0.0620937 -0.0270615 
0.0429999 0.0587722 0.05713 0.0411818 0.0603619 0.0588369 0.0393637 0.0619516 0.0605438 
0.0354956 0.0633002 0.0615749 0.0315848 0.0646437 0.0625919 0.0272656 0.0656297 0.0627875 
0.022929 0.0666003 0.0629482 0.018453 0.0671101 0.0622385 0.0139679 0.0675899 0.061472 
0.00963231 0.0675422 0.0598921 0.00531008 0.0674477 0.0582398 0.00139445 0.0668141 0.0559152 
-0.00247496 0.0661194 0.0535141 -0.00575542 0.0649339 0.0506198 -0.00895371 0.06368 0.0476566 
-0.0114781 0.0620324 0.0443676 -0.0138902 0.0603191 0.0410243 -0.015638 0.0583312 0.0374713 
-0.0172561 0.0562896 0.0338775 -0.0182779 0.0540743 0.0301191 -0.0191656 0.0518198 0.0263237 
-0.0194923 0.0494308 0.0223389 -0.0196751 0.0470073 0.0183055 -0.0191271 0.0444275 0.0140128 
-0.0183676 0.0418024 0.00964495 -0.0163554 0.0391397 0.00495985 -0.013937 0.0364647 0.000171841 
-0.00978082 0.0346031 -0.0048846 -0.00499708 0.0330351 -0.010038 0.000720641 0.0341216 -0.0152302 
0.00681195 0.0362699 -0.020438 0.0114042 0.0418605 -0.0253269 0.0153352 0.0489699 -0.030075 
0.0157735 0.057604 -0.0340737 0.0445822 0.0572784 0.0577934 0.0427016 0.0589053 0.0595741 
0.0408211 0.0605323 0.0613548 0.0367989 0.0619421 0.0624367 0.0327322 0.0633474 0.0635041 
0.0282001 0.0644031 0.0637147 0.0236483 0.0654439 0.0638888 0.0189122 0.0660073 0.0631492 
0.0141642 0.0665396 0.06235 0.00954301 0.066501 0.0606935 0.00493314 0.0664116 0.0589609 
0.00073459 0.0657185 0.056518 -0.0034172 0.0649567 0.0539944 -0.00694962 0.0636308 0.0509499 
-0.0103956 0.0622261 0.0478327 -0.0131211 0.0603607 0.0443716 -0.0157265 0.0584184 0.0408532 
-0.0176218 0.0561531 0.0371121 -0.0193785 0.0538248 0.0333276 -0.0205149 0.0512956 0.0293615 
-0.0215117 0.0487212 0.0253547 -0.0219511 0.0459853 0.0211262 -0.0222476 0.0432081 0.0168408 
-0.0217789 0.0401904 0.0122362 -0.0210887 0.037103 0.00753914 -0.0188646 0.0337861 0.00243393 
-0.0161431 0.0303949 -0.00280366 -0.0109909 0.0277072 -0.00840516 -0.004961 0.0252736 -0.0141381 
0.00263983 0.0260169 -0.0199543 0.010869 0.028031 -0.025804 0.0173543 0.0344413 -0.0313184 
0.0230701 0.0427912 -0.0366848 0.0243199 0.0529985 -0.0412513 0.0462515 0.0556315 0.0576498 
0.0443232 0.0573273 0.059473 0.042395 0.059023 0.0612961 0.0382397 0.0605442 0.0624127 
0.0340381 0.0620618 0.0635147 0.0292923 0.0632499 0.0637397 0.0245234 0.0644241 0.0639274 
0.0194962 0.0651024 0.0631692 0.0144522 0.0657484 0.0623494 0.00948393 0.0657609 0.0606325 
0.00452244 0.0657171 0.058836 -4.14291e-05 0.0649725 0.0562888 -0.0045601 0.0641482 0.0536564 
-0.00843131 0.0626494 0.0504689 -0.0122122 0.0610565 0.0472039 -0.0152108 0.0589049 0.0435705 
-0.018079 0.0566602 0.0398758 -0.0201634 0.0540331 0.0359415 -0.0220949 0.0513313 0.0319604 
-0.0233579 0.0484304 0.0277808 -0.0244704 0.0454845 0.0235566 -0.025048 0.042446 0.0190786 
-0.0254884 0.0393837 0.0145356 -0.0252336 0.0361691 0.00960581 -0.0247776 0.0329105 0.004564 
-0.0225875 0.0294006 -0.00100728 -0.019835 0.0258092 -0.00675029 -0.0136188 0.0227666 -0.0130015 
-0.00615199 0.0199221 -0.0194363 0.00413554 0.0204934 -0.0259978 0.0155513 0.022431 -0.0326099 
0.0248895 0.0294247 -0.0388219 0.0333112 0.0386489 -0.0448573 0.0356604 0.049805 -0.0500588 
0.0479308 0.0539673 0.0574145 0.0459565 0.0557354 0.0592766 0.0439821 0.0575034 0.0611386 
0.0396961 0.0591417 0.0622881 0.035362 0.0607774 0.0634228 0.0304024 0.0621051 0.0636622 
0.0254162 0.0634198 0.0638634 0.0200944 0.06422 0.063088 0.0147506 0.0649866 0.0622489 
0.00942829 0.065055 0.0604735 0.00410791 0.0650614 0.058615 -0.000830646 0.0642662 0.0559652 
-0.0057258 0.06338 0.0532254 -0.00994565 0.0617046 0.0498957 -0.0140713 0.0599191 0.0464836 
-0.0173512 0.0574736 0.0426779 -0.0204902 0.0549182 0.0388066 -0.0227685 0.0519196 0.0346786 
-0.0248789 0.0488346 0.0305005 -0.0262697 0.0455553 0.0261066 -0.0274987 0.0422323 0.0216642 
-0.0282173 0.0388961 0.0169362 -0.0288051 0.0355565 0.0121349 -0.0287796 0.0321724 0.00687839 
-0.0285765 0.0287756 0.00149008 -0.0264483 0.0251251 -0.0045525 -0.0236956 0.0213923 -0.0108073 
-0.0164079 0.0180482 -0.0177202 -0.00748243 0.0148445 -0.0248707 0.00558311 0.0152633 -0.0321911 
0.0203047 0.017131 -0.0395795 0.032605 0.024681 -0.0464972 0.043837 0.034738 -0.0532074 
0.0473184 0.046772 -0.0590514 0.0497814 0.0523361 0.0562595 0.0477867 0.0542337 0.0581267 
0.0457921 0.0561313 0.059994 0.0414144 0.0579735 0.0611661 0.036987 0.0598144 0.0623237 
0.0318191 0.0613889 0.0625908 0.0266197 0.062952 0.06282 0.0209592 0.0639784 0.0620564 
0.0152687 0.0649697 0.061228 0.00949879 0.0651663 0.0594257 0.0037218 0.0652922 0.0575369 
-0.00171855 0.0644633 0.0548064 -0.00712063 0.0635259 0.0519802 -0.011822 0.061626 0.0485146 
-0.0164255 0.0595917 0.0449597 -0.020091 0.0567442 0.0409744 -0.0236001 0.0537611 0.0369173 
-0.0261077 0.0502419 0.0325831 -0.0284199 0.0466182 0.0281948 -0.0298617 0.0428199 0.0235809 
-0.0311077 0.0389824 0.0189163 -0.0317566 0.0353378 0.0139513 -0.0322525 0.0317425 0.00890923 
-0.0321851 0.02855 0.00336605 -0.0319546 0.0254741 -0.0023222 -0.0297652 0.0227464 -0.00877611 
-0.0269405 0.0201317 -0.0154784 -0.0186528 0.0182499 -0.0230068 -0.0083924 0.0166328 -0.0308336 
0.00743088 0.0181037 -0.038888 0.0254793 0.0208098 -0.0470335 0.0407141 0.0281049 -0.0546271 
0.0547076 0.0374246 -0.0619773 0.0591485 0.0482582 -0.0684782 0.0516559 0.0507095 0.0549761 
0.0496445 0.0527447 0.0568439 0.0476332 0.0547798 0.0587116 0.0431692 0.0568379 0.0599049 
0.0386541 0.0588964 0.0610841 0.0332785 0.0607325 0.0613808 0.0278664 0.0625591 0.0616399 
0.0218613 0.0638262 0.0608921 0.0158175 0.0650568 0.0600788 0.00958688 0.0653916 0.0582539 
0.00333966 0.0656468 0.0563392 -0.00262023 0.0647865 0.0535311 -0.00854744 0.0637994 0.0506214 
-0.0137488 0.0616682 0.0470207 -0.0188488 0.0593773 0.0433236 -0.0229144 0.0561126 0.0391576 
-0.0268075 0.0526856 0.0349135 -0.0295494 0.0486251 0.0303714 -0.0320666 0.0444409 0.0257711 
-0.0335486 0.0401041 0.0209365 -0.0347977 0.0357329 0.0160491 -0.0353476 0.0317783 0.0108489 
-0.0357182 0.0279305 0.00556844 -0.035571 0.0249799 -0.000255807 -0.0352739 0.022289 -0.00623749 
-0.0330062 0.0206325 -0.0130944 -0.0300994 0.0193115 -0.0202351 -0.0208218 0.019138 -0.0283727 
-0.0092437 0.019379 -0.0368703 0.00933449 0.0220702 -0.0456552 0.0307127 0.0257413 -0.0545551 
0.0488782 0.0326684 -0.0628204 0.0656263 0.0410318 -0.0708059 0.0710025 0.050375 -0.0779656 
0.0538395 0.0492993 0.052733 0.0518549 0.0515566 0.0545735 0.0498702 0.0538138 0.0564139 
0.0453889 0.0562204 0.0576369 0.0408557 0.0586302 0.0588469 0.0352895 0.0608983 0.0592173 
0.0296793 0.0631603 0.0595518 0.0232655 0.0648379 0.0588828 0.0167992 0.0664774 0.0581484 
0.00996248 0.0670695 0.0563569 0.00309282 0.0675686 0.0544715 -0.00358468 0.0667093 0.0516132 
-0.0102403 0.0656956 0.0486444 -0.016149 0.0632692 0.0449017 -0.0219534 0.0606458 0.0410509 
-0.0265887 0.0568105 0.0366717 -0.0310292 0.0527733 0.0322045 -0.0340776 0.0479337 0.0274153 
-0.0368544 0.0429376 0.0225634 -0.0382505 0.0377515 0.0174852 -0.039336 0.0325225 0.012356 
-0.0393121 0.0279518 0.00694045 -0.0390036 0.0235497 0.00145145 -0.0378369 0.0207639 -0.00455642 
-0.0364216 0.0184458 -0.0107145 -0.0329178 0.0183375 -0.0177508 -0.0287365 0.0189459 -0.0250719 
-0.0182709 0.0215825 -0.0334447 -0.00553606 0.0249515 -0.0421975 0.0140133 0.0296833 -0.0513412 
0.0362884 0.0349603 -0.0606414 0.0550585 0.0409293 -0.0694294 0.0722824 0.0472038 -0.0779915 
0.077812 0.05359 -0.0858042 0.0560746 0.0479253 0.05033 0.0541239 0.0504187 0.0521385 
0.0521732 0.0529121 0.053947 0.0476862 0.0556894 0.055201 0.0431463 0.0584726 0.0564435 
0.0373923 0.0612011 0.0568948 0.0315866 0.0639272 0.0573125 0.0247534 0.0660437 0.0567327 
0.0178531 0.0681203 0.0560878 0.010386 0.0689896 0.054339 0.00286853 0.0697516 0.0524921 
-0.0045596 0.0688987 0.0495883 -0.0119776 0.0678623 0.0465644 -0.0186281 0.0651301 0.0426784 
-0.0251715 0.0621614 0.0386721 -0.0304049 0.05773 0.0340743 -0.0354199 0.0530549 0.0293779 
-0.0387869 0.0473967 0.0243352 -0.0418323 0.0415467 0.019225 -0.0431216 0.0354594 0.0138994 
-0.0440157 0.0293186 0.00852533 -0.0433388 0.0240807 0.00289772 -0.0422591 0.0190742 -0.0027949 
-0.0399161 0.0164402 -0.00897015 -0.0372074 0.0144929 -0.0152851 -0.0322744 0.0160124 -0.0224635 
-0.02662 0.0186562 -0.0299219 -0.0149334 0.0242864 -0.0384678 -0.0010686 0.030995 -0.0474064 
0.0191546 0.0379043 -0.056847 0.0419211 0.0448937 -0.0664885 0.0609082 0.0498065 -0.0757743 
0.078228 0.0538032 -0.0849032 0.0837808 0.056988 -0.093368 0.0588065 0.0469198 0.0469864 
0.0569622 0.0497567 0.048746 0.055118 0.0525935 0.0505056 0.050747 0.055927 0.0518345 
0.0463234 0.0592707 0.0531544 0.0404239 0.062716 0.053791 0.0344616 0.0661656 0.0543984 
0.0271167 0.068985 0.0540371 0.0196817 0.0717633 0.0536125 0.011359 0.0730947 0.0520068 
0.00295749 0.0742975 0.0502962 -0.00552417 0.0735036 0.0473798 -0.0140149 0.0724829 0.0443264 
-0.021719 0.0693689 0.0402574 -0.0293132 0.0659629 0.0360468 -0.0354173 0.0607599 0.0311432 
-0.041273 0.0552574 0.0261241 -0.0451492 0.0485023 0.0207306 -0.0486392 0.0415027 0.0152641 
-0.0498164 0.0340628 0.00961932 -0.0504732 0.0265239 0.00393444 -0.04871 0.0199268 -0.00191694 
-0.0463263 0.0135712 -0.00781102 -0.0417707 0.0102467 -0.0140588 -0.0365863 0.00779958 -0.0204089 
-0.0289377 0.0100535 -0.0274684 -0.0204899 0.0138322 -0.0347581 -0.00731513 0.0213539 -0.0430275 
0.0075666 0.0302273 -0.0516507 0.0267704 0.0384919 -0.0608843 0.047703 0.046513 -0.070362 
0.0646259 0.0507467 -0.0797665 0.0797799 0.0533093 -0.0891387 0.0844583 0.0542393 -0.0979427 
0.0616353 0.0459863 0.0434592 0.0599116 0.0491875 0.0451666 0.058188 0.0523888 0.0468741 
0.0539568 0.0563146 0.0482864 0.0496734 0.0602554 0.0496926 0.0436367 0.0644675 0.0505346 
0.0375254 0.0686911 0.0513527 0.0296509 0.072265 0.051235 0.0216614 0.0757965 0.0510562 
0.0124393 0.0776261 0.0496133 0.00310758 0.0793044 0.0480581 -0.00648671 0.0785799 0.0451355 
-0.0161108 0.0775824 0.0420575 -0.0249292 0.0740718 0.0377978 -0.0336351 0.0702104 0.0333733 
-0.0406631 0.0642015 0.0281469 -0.0474114 0.0578347 0.0227869 -0.0518341 0.0499284 0.0170236 
-0.055803 0.0417216 0.0111817 -0.056867 0.0328411 0.00520375 -0.0572775 0.0238089 -0.000804792 
-0.0543435 0.0157177 -0.00688223 -0.050552 0.00786768 -0.0129773 -0.0435815 0.00368833 -0.0192791 
-0.0356907 0.000571517 -0.0256406 -0.0250755 0.0033857 -0.0325304 -0.0135767 0.00812345 -0.0395915 
0.00113842 0.0173216 -0.0474967 0.017015 0.0281305 -0.0557068 0.034869 0.0375901 -0.064635 
0.0535139 0.04651 -0.0738504 0.0679276 0.0501381 -0.0832997 0.0804744 0.0514315 -0.0928521 
0.0841034 0.0502912 -0.101934 0.0651814 0.0455553 0.0390408 0.0636976 0.0492451 0.0406856 
0.0622137 0.0529348 0.0423304 0.058335 0.0576935 0.0439232 0.0544064 0.0624744 0.0455148 
0.048327 0.0678165 0.0467777 0.0421562 0.0731825 0.0480265 0.0336211 0.0778941 0.048412 
0.0249318 0.0825629 0.0487411 0.0144627 0.0851452 0.0476481 0.00383538 0.087542 0.0464287 
-0.00731911 0.0869415 0.0435387 -0.0185335 0.0860004 0.0404589 -0.028891 0.0819951 0.0359038 
-0.0391289 0.0775623 0.0311428 -0.0474444 0.0706002 0.025407 -0.0554396 0.0632166 0.0195087 
-0.0607524 0.0540102 0.013179 -0.0655419 0.044448 0.00676515 -0.0667836 0.0338578 0.000296054 
-0.0672271 0.0230362 -0.00618547 -0.0630578 0.012794 -0.0125808 -0.0577058 0.00270049 -0.0189541 
-0.0476274 -0.00339895 -0.0252906 -0.0361809 -0.0083422 -0.0316164 -0.0217578 -0.00610742 -0.0381558 
-0.00636928 -0.00154464 -0.0447645 0.0101536 0.00807076 -0.0519947 0.027086 0.0195107 -0.0594492 
0.0433594 0.0292394 -0.067664 0.0593692 0.0382837 -0.0761829 0.0707965 0.0416925 -0.0851374 
0.0802022 0.0426152 -0.0942842 0.0822089 0.0406217 -0.103037 0.068889 0.0452374 0.034422 
0.0676717 0.0494436 0.0360018 0.0664545 0.0536497 0.0375815 0.062976 0.0592954 0.0393765 
0.0594505 0.0649711 0.0411761 0.0533499 0.071525 0.0429081 0.0471397 0.0781162 0.0446372 
0.0379145 0.0840516 0.0455843 0.0284926 0.0899443 0.0464803 0.0166983 0.0933366 0.0457793 
0.00469318 0.0965066 0.0449363 -0.00812222 0.0960423 0.0420877 -0.0210297 0.095165 0.0390111 
-0.0330219 0.0906431 0.034137 -0.0448863 0.0856126 0.029012 -0.0545713 0.0776642 0.0227248 
-0.0638929 0.0692296 0.0162438 -0.0701733 0.0586895 0.00930345 -0.0758602 0.0477386 0.00227345 
-0.077345 0.0353781 -0.00472237 -0.0778843 0.0227004 -0.0117105 -0.0724653 0.0101597 -0.0184445 
-0.0655185 -0.00234603 -0.0251133 -0.0521763 -0.0106052 -0.0314802 -0.0369828 -0.0176352 -0.0377597 
-0.0185625 -0.0162362 -0.0439081 0.000904381 -0.0121036 -0.0500139 0.0192951 -0.00235431 -0.056499 
0.0372972 0.00942321 -0.063121 0.051938 0.0192127 -0.0705306 0.0652344 0.028207 -0.0782553 
0.0735681 0.0314837 -0.0865938 0.0797124 0.0322377 -0.095203 0.0799679 0.0296647 -0.103491 
0.073558 0.0456104 0.0290009 0.0727923 0.0504864 0.0304946 0.0720266 0.0553623 0.0319882 
0.0692999 0.06219 0.0341544 0.0665324 0.0690582 0.0363346 0.0605924 0.0772897 0.0389481 
0.0545174 0.0855792 0.0415802 0.0444081 0.0932212 0.0435927 0.0340358 0.100821 0.0455649 
0.0203779 0.105294 0.0455951 0.00642795 0.109489 0.0454527 -0.00868596 0.109142 0.0426768 
-0.0239321 0.10828 0.0396018 -0.0380571 0.103067 0.0341738 -0.0520257 0.0972482 0.0284176 
-0.0633919 0.0882239 0.0212226 -0.0743244 0.0786654 0.0137878 -0.081876 0.0669944 0.00589814 
-0.088768 0.0549112 -0.00208032 -0.090995 0.0413226 -0.00985743 -0.0921724 0.0273952 -0.0175892 
-0.0858788 0.0131398 -0.0248398 -0.0776695 -0.00119974 -0.0319669 -0.060557 -0.0114844 -0.0384382 
-0.0408672 -0.0205953 -0.0447198 -0.0174267 -0.0203764 -0.0503407 0.00723037 -0.0171317 -0.0557474 
0.0279625 -0.00796107 -0.0611941 0.0472773 0.00334941 -0.0666552 0.0603094 0.0123342 -0.0729213 
0.0708284 0.0203888 -0.0795094 0.0760077 0.0228596 -0.0868402 0.0788313 0.0228669 -0.0944988 
0.0770469 0.0194859 -0.101917 0.0784736 0.0461606 0.0233742 0.0782068 0.0517456 0.0247763 
0.07794 0.0573307 0.0261783 0.0760552 0.0654159 0.028759 0.0741367 0.0735532 0.0313642 
0.068404 0.0835817 0.0349651 0.0625091 0.0936907 0.0386083 0.051466 0.103163 0.0418156 
0.0400872 0.112594 0.0449945 0.0244276 0.118217 0.0458429 0.00838759 0.123502 0.0464841 
-0.00918832 0.123268 0.0437891 -0.0269387 0.122407 0.0407151 -0.0433243 0.11646 0.0346731 
-0.0595194 0.109803 0.028217 -0.0726469 0.0996799 0.020023 -0.085263 0.0889789 0.0115393 
-0.0941639 0.076229 0.00261341 -0.10234 0.0630793 -0.00639871 -0.105437 0.0484015 -0.0150224 
-0.107391 0.0333799 -0.0235587 -0.100319 0.0175596 -0.0313714 -0.0909329 0.00153445 -0.0389985 
-0.0699202 -0.0107413 -0.0455934 -0.0455421 -0.0219317 -0.0518894 -0.0168189 -0.0229811 -0.0569479 
0.0133134 -0.0207416 -0.061605 0.0365084 -0.0123324 -0.0659381 0.0571983 -0.00169524 -0.0701542 
0.0686277 0.00626301 -0.0751899 0.0763529 0.0131497 -0.0805536 0.0783622 0.0146419 -0.0867765 
0.0778499 0.0137541 -0.0933785 0.0739516 0.00950658 -0.0998225 0.0846745 0.0476809 0.0172289 
0.0851606 0.0542188 0.0185096 0.0856468 0.0607567 0.0197903 0.0851138 0.0704478 0.0230569 
0.0845596 0.0802046 0.0263648 0.0793102 0.0925054 0.0316896 0.0738609 0.104914 0.0371001 
0.0615684 0.116642 0.0424048 0.0488296 0.128326 0.0477027 0.030344 0.135218 0.049912 
0.0113477 0.141685 0.0518469 -0.00955579 0.141337 0.0491791 -0.030676 0.140215 0.0459883 
-0.0497986 0.133201 0.0388328 -0.0686424 0.125366 0.0311241 -0.0835062 0.114066 0.0212985 
-0.0977066 0.102189 0.0111202 -0.107658 0.0888964 0.000647699 -0.116781 0.0753276 -0.00988223 
-0.120647 0.0610964 -0.0196314 -0.12333 0.0467163 -0.029205 -0.11582 0.0320479 -0.0376704 
-0.105697 0.0173056 -0.0458516 -0.08104 0.00574453 -0.0525619 -0.0521759 -0.00489574 -0.0588464 
-0.0182144 -0.00697383 -0.0632078 0.0174003 -0.00627501 -0.0669456 0.0427934 -0.000714539 -0.0699956 
0.0644953 0.00660152 -0.0727973 0.0741401 0.0112112 -0.0765192 0.0789619 0.0147383 -0.0806093 
0.0779775 0.0136164 -0.0857096 0.0744314 0.0104435 -0.0912557 0.0685893 0.00439573 -0.0967695 
0.0912474 0.0494819 0.0109334 0.0925601 0.0570434 0.0120842 0.0938727 0.0646048 0.0132349 
0.0948393 0.0760026 0.017266 0.0957986 0.0874802 0.0213571 0.0911121 0.102191 0.0286189 
0.0861855 0.117039 0.0360155 0.0725521 0.131146 0.043679 0.0583509 0.145203 0.0513599 
0.0368008 0.1534 0.0550874 0.0145975 0.161076 0.0584635 -0.0098842 0.160549 0.0558073 
-0.0346248 0.159089 0.0524657 -0.0566223 0.150912 0.044052 -0.0782371 0.141799 0.0349307 
-0.0948299 0.1293 0.0232906 -0.110586 0.116238 0.0112308 -0.121502 0.102558 -0.000936189 
-0.131474 0.088757 -0.0131241 -0.136079 0.0754171 -0.0240795 -0.139478 0.0621808 -0.0347576 
-0.131628 0.0494509 -0.043902 -0.120895 0.0368507 -0.0526531 -0.0926682 0.0267875 -0.0594765 
-0.0593768 0.0174585 -0.0657419 -0.0201897 0.0144211 -0.0693673 0.0209095 0.0134242 -0.0721366 
0.048424 0.0155318 -0.0738544 0.0710329 0.0187603 -0.0751926 0.0788403 0.0193492 -0.0775766 
0.080727 0.0188823 -0.0803789 0.0767997 0.014673 -0.0843524 0.0703075 0.00881251 -0.0888427 
0.0625707 0.000694169 -0.093439 0.0996917 0.0522559 0.00497464 0.10211 0.0612131 0.00611254 
0.104529 0.0701703 0.00725043 0.107556 0.083608 0.0125387 0.110596 0.097139 0.0179135 
0.106721 0.114453 0.028278 0.102552 0.131927 0.0388548 0.0870434 0.148406 0.0502209 
0.0707951 0.164819 0.0616385 0.0450264 0.174047 0.0675271 0.0184116 0.182637 0.0729243 
-0.0107007 0.181444 0.0699149 -0.0400966 0.17914 0.0659501 -0.0652971 0.169379 0.0552905 
-0.0899122 0.158578 0.0436967 -0.107673 0.144825 0.0292163 -0.124291 0.13058 0.0142547 
-0.134861 0.117012 -0.000284777 -0.144252 0.103575 -0.0147419 -0.147909 0.0924034 -0.0270834 
-0.150277 0.0817419 -0.0389488 -0.14129 0.073266 -0.0484679 -0.129392 0.0653504 -0.0573854 
-0.0995649 0.0593024 -0.0638262 -0.064547 0.0537949 -0.0695501 -0.0238793 0.0501596 -0.0723089 
0.0186207 0.0471315 -0.074106 0.0461579 0.0441138 -0.0748175 0.0682918 0.0410998 -0.075137 
0.0746982 0.0359613 -0.0766452 0.0748137 0.0299729 -0.0786288 0.0692603 0.0216707 -0.0819076 
0.0612058 0.0123479 -0.0857577 0.0524971 0.00167427 -0.0898589 0.108743 0.0553453 -0.000874873 
0.112358 0.0658191 0.000288089 0.115973 0.076293 0.00145105 0.121243 0.0918787 0.00815644 
0.126548 0.107571 0.0149773 0.123565 0.12755 0.0288225 0.12023 0.147711 0.0429666 
0.102672 0.16656 0.0584712 0.0841872 0.185323 0.0740645 0.0538257 0.195494 0.0823229 
0.0224086 0.204902 0.0899292 -0.0116755 0.202886 0.0864481 -0.0460625 0.199572 0.0817071 
-0.0745724 0.188091 0.0684811 -0.102262 0.17547 0.0540712 -0.121008 0.160445 0.0364177 
-0.138264 0.145019 0.0182235 -0.148064 0.131723 0.00109159 -0.156408 0.118843 -0.0158331 
-0.15857 0.110254 -0.0296188 -0.159341 0.102632 -0.0426983 -0.148958 0.0991607 -0.0524935 
-0.135716 0.0967543 -0.0614465 -0.104927 0.0955379 -0.0673441 -0.0690586 0.0946661 -0.0723572 
-0.0281249 0.0905501 -0.0742069 0.0144516 0.0853819 -0.0750307 0.0413307 0.0766966 -0.0748415 
0.0625414 0.0667412 -0.0742865 0.0676885 0.0553216 -0.0750688 0.0664101 0.0433163 -0.076386 
0.0596575 0.0305954 -0.07911 0.0504898 0.0175588 -0.0824547 0.0411082 0.00417273 -0.0861979 
0.120476 0.05808 -0.00479965 0.125489 0.0702244 -0.00291701 0.130502 0.0823687 -0.00103437 
0.138321 0.0999923 0.00811044 0.146198 0.11773 0.0174065 0.144034 0.139766 0.0361615 
0.141442 0.161984 0.0553189 0.121075 0.18237 0.0763108 0.0995491 0.202637 0.0974223 