# vtk DataFile Version 2.0
vtk output
ASCII
DATASET RECTILINEAR_GRID
DIMENSIONS 34 34 34
X_COORDINATES 34 float
3.33333 3.53535 3.73737 3.93939 4.14141 4.34343 4.54545 4.74747 4.94949 
5.15152 5.35354 5.55556 5.75758 5.9596 6.16162 6.36364 6.56566 6.76768 
6.9697 7.17172 7.37374 7.57576 7.77778 7.9798 8.18182 8.38384 8.58586 
8.78788 8.9899 9.19192 9.39394 9.59596 9.79798 10 
Y_COORDINATES 34 float
-3.33333 -3.13131 -2.92929 -2.72727 -2.52525 -2.32323 -2.12121 -1.91919 -1.71717 
-1.51515 -1.31313 -1.11111 -0.909091 -0.707071 -0.505051 -0.30303 -0.10101 0.10101 
0.30303 0.50505 0.70707 0.909091 1.11111 1.31313 1.51515 1.71717 1.91919 
2.12121 2.32323 2.52525 2.72727 2.92929 3.13131 3.33333 
Z_COORDINATES 34 float
-10 -9.79798 -9.59596 -9.39394 -9.19192 -8.9899 -8.78788 -8.58586 -8.38384 
-8.18182 -7.9798 -7.77778 -7.57576 -7.37374 -7.17172 -6.9697 -6.76768 -6.56566 
-6.36364 -6.16162 -5.9596 -5.75758 -5.55556 -5.35354 -5.15152 -4.9495 -4.74747 
-4.54545 -4.34343 -4.14141 -3.93939 -3.73737 -3.53535 -3.33333 
POINT_DATA 39304
VECTORS grad float
-0.019222 0.0405398 0.03656 -0.0180356 0.0391469 0.036995 -0.0169539 0.0377014 0.0375768 
-0.0159319 0.0362362 0.0382153 -0.0150452 0.0347263 0.0389826 -0.0142236 0.0332046 0.0397937 
-0.0135647 0.031653 0.0407146 -0.012974 0.0300983 0.0416673 -0.0125722 0.0285348 0.0427081 
-0.0122399 0.0269768 0.0437681 -0.0121219 0.0254352 0.0448869 -0.0120721 0.0239065 0.0460106 
-0.0122581 0.0224225 0.0471512 -0.0125076 0.0209575 0.0482813 -0.0130046 0.0195668 0.0493708 
-0.0135561 0.0181996 0.0504358 -0.0143501 0.0169371 0.0513922 -0.0151861 0.0157008 0.0523139 
-0.0162375 0.0145985 0.053058 -0.0173165 0.0135229 0.0537627 -0.0185611 0.012607 0.0542316 
-0.0198195 0.0117159 0.0546625 -0.0211757 0.0110023 0.0548214 -0.0225344 0.0103096 0.0549482 
-0.0239142 0.00980055 0.0547935 -0.0252892 0.00930703 0.0546153 -0.0266105 0.00898877 0.0541735 
-0.0279241 0.00868053 0.053717 -0.029121 0.00852582 0.0530353 -0.0303111 0.00837631 0.0523463 
-0.0313399 0.0083489 0.0514825 -0.0323574 0.00832327 0.0506161 -0.0328258 0.00838365 0.0496288 
-0.0332942 0.00844403 0.0486415 -0.02061 0.0412071 0.0381065 -0.0194611 0.0398064 0.0384591 
-0.0184142 0.0383597 0.0389385 -0.0174243 0.0368953 0.0394673 -0.0165635 0.0353906 0.0401083 
-0.015764 0.0338751 0.0407888 -0.0151178 0.0323324 0.0415678 -0.0145356 0.0307871 0.0423767 
-0.0141306 0.0292346 0.0432688 -0.0137909 0.0276875 0.0441803 -0.0136524 0.0261577 0.0451518 
-0.0135782 0.0246407 0.0461301 -0.013726 0.0231682 0.0471316 -0.0139338 0.0217145 0.0481255 
-0.0143754 0.0203341 0.0490897 -0.0148686 0.0189767 0.0500329 -0.0155912 0.0177215 0.0508823 
-0.0163535 0.0164915 0.0517007 -0.0173197 0.015391 0.0523601 -0.0183122 0.0143161 0.0529838 
-0.019462 0.0133938 0.0533938 -0.0206251 0.012495 0.0537694 -0.0218825 0.0117645 0.0538977 
-0.0231427 0.0110538 0.053997 -0.0244267 0.0105164 0.0538402 -0.0257066 0.00999367 0.053662 
-0.0269418 0.00963669 0.0532438 -0.0281703 0.00928923 0.0528121 -0.0292961 0.00908792 0.0521742 
-0.0304159 0.00889163 0.0515294 -0.0313917 0.00881334 0.0507225 -0.0323567 0.00873683 0.0499133 
-0.0328033 0.00874581 0.0489891 -0.0332499 0.0087548 0.048065 -0.0220052 0.0418099 0.039869 
-0.0208852 0.0404077 0.0401483 -0.0198666 0.0389681 0.0405349 -0.0189031 0.0375131 0.0409638 
-0.0180643 0.0360231 0.0414886 -0.0172836 0.0345233 0.0420482 -0.0166484 0.0329994 0.042695 
-0.0160733 0.0314732 0.0433697 -0.0156648 0.0299405 0.0441217 -0.0153177 0.0284132 0.0448932 
-0.0151595 0.0269026 0.0457247 -0.0150618 0.0254044 0.0465644 -0.0151731 0.0239491 0.0474326 
-0.0153411 0.0225119 0.0482956 -0.01573 0.0211452 0.0491386 -0.0161677 0.0198007 0.0499635 
-0.0168225 0.0185542 0.0507082 -0.0175152 0.017332 0.0514252 -0.0184014 0.0162337 0.052 
-0.0193126 0.0151595 0.0525425 -0.020374 0.0142305 0.0528912 -0.0214481 0.0133238 0.0532084 
-0.0226139 0.0125763 0.0533002 -0.0237827 0.0118474 0.0533655 -0.0249777 0.011282 0.053197 
-0.0261694 0.0107305 0.053009 -0.0273244 0.0103356 0.0526014 -0.0284734 0.00994967 0.0521814 
-0.0295323 0.00970271 0.0515719 -0.0305857 0.00946057 0.050956 -0.0315103 0.00933208 0.0501898 
-0.0324248 0.00920534 0.0494213 -0.0328499 0.00916293 0.048544 -0.0332751 0.00912051 0.0476667 
-0.0234043 0.0423785 0.0417462 -0.0223085 0.0409782 0.041957 -0.0213148 0.03955 0.042256 
-0.0203746 0.0381088 0.0425902 -0.0195557 0.0366386 0.0430041 -0.0187922 0.0351598 0.0434482 
-0.0181669 0.0336598 0.0439679 -0.0175982 0.0321577 0.0445134 -0.0171861 0.0306497 0.04513 
-0.0168315 0.0291468 0.0457659 -0.016654 0.0276595 0.0464612 -0.0165334 0.0261839 0.047166 
-0.0166092 0.0247487 0.0479039 -0.0167384 0.0233307 0.0486389 -0.0170758 0.0219796 0.0493627 
-0.0174595 0.0206495 0.0500714 -0.0180487 0.0194128 0.0507125 -0.0186738 0.018199 0.0513291 
-0.0194827 0.0171029 0.0518195 -0.0203155 0.0160297 0.0522806 -0.0212918 0.0150939 0.0525665 
-0.0222805 0.0141791 0.0528238 -0.0233583 0.0134145 0.052876 -0.0244394 0.0126674 0.052904 
-0.0255492 0.0120741 0.0527187 -0.0266564 0.011494 0.0525156 -0.0277342 0.0110615 0.0521116 
-0.0288069 0.0106376 0.0516963 -0.0298009 0.0103455 0.0511071 -0.0307901 0.010058 0.050512 
-0.0316645 0.00987966 0.0497777 -0.0325293 0.00970304 0.0490412 -0.0329332 0.00960923 0.0482022 
-0.033337 0.00951541 0.0473632 -0.0248001 0.0428198 0.0438426 -0.0237175 0.041427 0.0439949 
-0.0227408 0.0400168 0.0442173 -0.0218172 0.0385965 0.0444679 -0.0210141 0.0371532 0.0447826 
-0.0202642 0.0357025 0.0451227 -0.0196475 0.0342335 0.0455265 -0.0190843 0.0327624 0.0459534 
-0.0186693 0.0312857 0.0464442 -0.0183082 0.0298135 0.0469535 -0.0181136 0.028355 0.0475199 
-0.0179725 0.0269072 0.0480964 -0.0180159 0.0254966 0.0487084 -0.0181097 0.0241019 0.0493192 
-0.0183998 0.0227697 0.0499257 -0.0187337 0.0214572 0.0505195 -0.019262 0.0202326 0.0510564 
-0.0198244 0.0190297 0.0515715 -0.0205615 0.0179377 0.0519744 -0.0213215 0.0168674 0.0523509 
-0.0222187 0.0159267 0.0525687 -0.0231281 0.0150057 0.0527604 -0.0241244 0.0142263 0.0527653 
-0.0251243 0.0134633 0.0527479 -0.026155 0.0128451 0.0525358 -0.0271838 0.0122393 0.0523073 
-0.0281898 0.0117726 0.0518948 -0.0291913 0.011314 0.0514719 -0.0301244 0.0109803 0.0508892 
-0.0310531 0.0106511 0.0503011 -0.0318794 0.0104263 0.0495841 -0.0326968 0.0102032 0.0488652 
-0.03308 0.0100608 0.04805 -0.0334632 0.00991849 0.0472348 -0.026194 0.0431871 0.0460662 
-0.0251182 0.0418052 0.0461658 -0.0241539 0.0404169 0.046318 -0.023243 0.0390213 0.0464916 
-0.0224531 0.0376092 0.0467139 -0.0217149 0.0361909 0.0469567 -0.021106 0.0347569 0.0472509 
-0.0205478 0.0333209 0.0475654 -0.0201302 0.0318792 0.0479359 -0.0197634 0.0304413 0.0483239 
-0.0195529 0.0290148 0.0487656 -0.0193926 0.027598 0.0492178 -0.0194056 0.0262144 0.0497064 
-0.019466 0.0248456 0.0501953 -0.0197111 0.0235341 0.0506856 -0.0199976 0.0222411 0.0511652 
-0.0204678 0.0210301 0.0515976 -0.0209704 0.0198393 0.0520105 -0.0216388 0.0187526 0.0523241 
-0.0223292 0.0176862 0.0526139 -0.023151 0.0167417 0.0527606 -0.0239847 0.0158158 0.0528837 
-0.0249032 0.0150228 0.0528366 -0.0258255 0.0142452 0.0527694 -0.0267808 0.0136038 0.0525245 
-0.0277347 0.012974 0.0522646 -0.0286719 0.012475 0.0518365 -0.0296052 0.0119837 0.0513989 
-0.0304796 0.0116105 0.0508148 -0.0313501 0.0112416 0.0502255 -0.0321297 0.0109723 0.0495175 
-0.0329007 0.0107048 0.0488076 -0.0332637 0.0105155 0.0480079 -0.0336266 0.0103263 0.0472082 
-0.0275746 0.0433592 0.0485009 -0.0264937 0.0419945 0.0485566 -0.0255337 0.0406343 0.0486486 
-0.0246286 0.0392695 0.0487553 -0.023848 0.0378942 0.0488954 -0.0231184 0.0365136 0.0490512 
-0.0225162 0.0351196 0.0492458 -0.0219627 0.0337235 0.0494573 -0.0215438 0.0323214 0.0497158 
-0.0211728 0.0309222 0.0499901 -0.0209491 0.029532 0.0503129 -0.0207727 0.0281503 0.050646 
-0.0207589 0.0267979 0.0510144 -0.0207898 0.0254589 0.051384 -0.0209944 0.0241723 0.0517584 
-0.021238 0.0229028 0.0521239 -0.0216549 0.0217092 0.0524495 -0.0221026 0.0205346 0.0527579 
-0.0227077 0.0194573 0.0529781 -0.0233338 0.0183991 0.0531768 -0.0240858 0.0174553 0.0532465 
-0.0248493 0.0165289 0.0532946 -0.0256958 0.0157274 0.0531882 -0.0265462 0.0149403 0.0530633 
-0.0274316 0.0142811 0.0527765 -0.028316 0.0136327 0.0524759 -0.0291892 0.0131072 0.0520217 
-0.0300592 0.012589 0.0515588 -0.0308785 0.0121822 0.0509615 -0.0316944 0.0117795 0.0503596 
-0.0324296 0.0114714 0.0496482 -0.0331568 0.0111649 0.0489351 -0.0335003 0.0109339 0.0481386 
-0.0338439 0.0107029 0.0473421 -0.0289468 0.0434076 0.0510691 -0.0278532 0.0420642 0.0510867 
-0.0268923 0.040736 0.0511247 -0.0259887 0.0394058 0.0511708 -0.025215 0.0380708 0.0512354 
-0.024492 0.0367313 0.0513105 -0.023896 0.0353806 0.0514118 -0.0233469 0.0340275 0.0515265 
-0.0229274 0.0326678 0.0516782 -0.0225531 0.0313102 0.0518436 -0.0223181 0.029959 0.0520513 
-0.0221273 0.028615 0.0522686 -0.0220893 0.0272963 0.0525189 -0.022093 0.0259897 0.0527708 
-0.0222598 0.0247304 0.0530295 -0.0224633 0.0234869 0.0532807 -0.0228302 0.0223134 0.0534982 
-0.0232262 0.0211575 0.0537006 -0.0237713 0.0200923 0.0538248 -0.0243365 0.019045 0.0539297 
-0.0250221 0.0181047 0.0539186 -0.0257191 0.0171807 0.0538879 -0.026497 0.0163737 0.0537173 
-0.0272791 0.0155804 0.0535299 -0.0280981 0.0149067 0.0531952 -0.0289165 0.0142433 0.052848 
-0.0297289 0.0136951 0.052361 -0.0305384 0.0131537 0.0518661 -0.0313051 0.012717 0.0512483 
-0.0320687 0.012284 0.0506263 -0.032761 0.0119407 0.0499039 -0.0334459 0.0115989 0.0491798 
-0.0337706 0.0113292 0.0483788 -0.0340952 0.0110596 0.0475778 -0.0302919 0.0431935 0.0538272 
-0.029175 0.0418802 0.0538127 -0.0282067 0.0405913 0.0538033 -0.0272992 0.0393021 0.0537955 
-0.0265294 0.0380125 0.0537916 -0.025811 0.0367188 0.053793 -0.0252209 0.0354152 0.0538075 
-0.0246762 0.0341089 0.0538316 -0.0242575 0.0327951 0.0538821 -0.0238816 0.0314826 0.0539438 
-0.0236377 0.0301741 0.0540402 -0.0234354 0.0288719 0.0541451 -0.0233763 0.0275912 0.0542791 
-0.0233563 0.0263215 0.0544149 -0.0234892 0.0250945 0.0545577 -0.0236566 0.0238821 0.0546941 
-0.0239776 0.0227343 0.0548018 -0.0243262 0.021603 0.0548959 -0.024816 0.0205563 0.0549208 
-0.025325 0.0195263 0.0549283 -0.0259492 0.0185964 0.0548317 -0.0265846 0.0176819 0.0547173 
-0.0272991 0.0168769 0.0544766 -0.0280181 0.0160846 0.0542207 -0.0287755 0.0154042 0.0538312 
-0.0295328 0.0147334 0.0534304 -0.0302888 0.0141703 0.0529025 -0.0310425 0.0136135 0.0523673 
-0.0317603 0.0131544 0.0517202 -0.0324754 0.012699 0.0510692 -0.0331277 0.0123276 0.0503263 
-0.033773 0.0119576 0.0495819 -0.0340799 0.0116559 0.0487667 -0.0343869 0.0113543 0.0479514 
-0.0316183 0.0427983 0.0567163 -0.0304707 0.0415214 0.0566737 -0.0294905 0.0402765 0.0566214 
-0.0285754 0.039033 0.0565645 -0.0278078 0.0377921 0.0564969 -0.0270924 0.0365476 0.0564293 
-0.0265079 0.0352938 0.0563615 -0.0259678 0.0340368 0.0562993 -0.0255508 0.0327714 0.0562524 
-0.0251744 0.0315065 0.056214 -0.0249234 0.0302433 0.0562018 -0.0247113 0.0289853 0.0561966 
-0.0246334 0.0277456 0.0562157 -0.0245921 0.0265159 0.0562363 -0.0246936 0.0253247 0.0562633 
-0.0248276 0.024147 0.0562846 -0.0251058 0.0230289 0.056281 -0.02541 0.0219262 0.0562655 
-0.0258476 0.0209024 0.0561887 -0.0263037 0.0198942 0.0560964 -0.02687 0.0189796 0.055911 
-0.0274471 0.0180793 0.0557096 -0.0281018 0.0172813 0.0553947 -0.028761 0.0164951 0.0550661 
-0.0294604 0.0158133 0.0546171 -0.03016 0.0151405 0.0541577 -0.0308628 0.0145677 0.0535833 
-0.0315636 0.0140009 0.0530022 -0.0322352 0.0135249 0.0523197 -0.0329045 0.0130522 0.0516335 
-0.0335187 0.0126577 0.0508637 -0.0341263 0.0122645 0.0500924 -0.0344163 0.0119353 0.0492564 
-0.0347063 0.0116062 0.0484202 -0.0328959 0.0420809 0.0597609 -0.0317113 0.0408533 0.0596923 
-0.0307162 0.0396619 0.0595995 -0.0297913 0.038472 0.0594956 -0.0290252 0.0372858 0.0593667 
-0.0283128 0.0360956 0.0592324 -0.0277345 0.0348954 0.0590848 -0.0271997 0.0336917 0.0589386 
-0.0267856 0.0324781 0.0587965 -0.0264102 0.0312643 0.05866 -0.0261538 0.0300503 0.0585408 
-0.0259338 0.0288408 0.0584271 -0.0258393 0.027647 0.0583323 -0.025779 0.0264624 0.0582387 
-0.025852 0.0253131 0.05815 -0.0259554 0.0241764 0.0580564 -0.026194 0.0230952 0.0579411 
-0.0264571 0.0220285 0.0578153 -0.0268464 0.0210357 0.0576355 -0.0272533 0.0200575 0.0574419 
-0.027766 0.0191669 0.0571655 -0.0282893 0.0182896 0.056875 -0.0288887 0.0175077 0.0564829 
-0.0294928 0.0167369 0.0560785 -0.0301388 0.0160629 0.0555657 -0.0307854 0.0153972 0.0550438 
-0.0314395 0.0148239 0.0544178 -0.032092 0.0142561 0.0537859 -0.0327214 0.0137719 0.0530621 
-0.0333488 0.0132907 0.052335 -0.0339282 0.0128814 0.0515318 -0.0345014 0.0124732 0.0507273 
-0.0347759 0.012124 0.0498636 -0.0350504 0.0117749 0.0489999 -0.034137 0.0411219 0.0629222 
-0.0329105 0.0399534 0.0628291 -0.0318983 0.0388222 0.0626974 -0.0309618 0.0376922 0.0625483 
-0.0301969 0.0365649 0.0623598 -0.0294872 0.0354329 0.0621606 -0.0289156 0.0342894 0.0619349 
-0.0283868 0.0331417 0.0617066 -0.0279767 0.0319824 0.0614708 -0.0276032 0.0308225 0.0612376 
-0.0273428 0.0296606 0.0610128 -0.0271163 0.0285027 0.0607918 -0.027007 0.0273586 0.0605839 
-0.0269294 0.026223 0.0603768 -0.0269759 0.0251201 0.0601728 -0.0270508 0.0240291 0.0599644 
-0.0272522 0.0229904 0.0597369 -0.0274767 0.0219652 0.0595002 -0.0278205 0.0210095 0.0592164 
-0.0281812 0.0200674 0.0589205 -0.0286434 0.0192074 0.0585515 -0.0291161 0.0183598 0.05817 
-0.0296637 0.0176008 0.0576985 -0.0302162 0.0168521 0.057216 -0.0308123 0.0161929 0.0566365 
-0.0314094 0.0155412 0.0560488 -0.0320181 0.0149742 0.0553677 -0.0326258 0.0144122 0.0546811 
-0.033216 0.0139263 0.0539117 -0.0338045 0.0134432 0.0531393 -0.0343516 0.0130252 0.0522979 
-0.0348928 0.0126083 0.0514555 -0.0351528 0.0122447 0.0505591 -0.0354129 0.0118812 0.0496628 
-0.0352977 0.0397975 0.066191 -0.0340307 0.0387051 0.066072 -0.033004 0.0376459 0.0658996 
-0.0320585 0.0365859 0.0657034 -0.0312973 0.0355244 0.0654532 -0.0305927 0.034457 0.0651872 
-0.0300297 0.0333748 0.0648819 -0.0295086 0.0322876 0.06457 -0.0291036 0.0311868 0.0642397 
-0.0287332 0.0300849 0.0639093 -0.0284697 0.0289798 0.063579 -0.0282376 0.0278783 0.0632509 
-0.0281144 0.0267896 0.0629307 -0.0280207 0.0257089 0.0626109 -0.028042 0.0246596 0.0622929 
-0.02809 0.0236216 0.0619712 -0.0282561 0.0226335 0.0616331 -0.0284443 0.0216583 0.0612871 
-0.0287454 0.0207489 0.0609008 -0.0290629 0.0198523 0.0605039 -0.0294783 0.0190327 0.0600434 
-0.0299041 0.0182245 0.0595718 -0.0304041 0.0174986 0.059021 -0.0309093 0.0167821 0.0584604 
-0.0314602 0.0161476 0.0578136 -0.0320125 0.0155199 0.0571593 -0.0325806 0.0149689 0.0564214 
-0.0331479 0.0144223 0.0556785 -0.0337034 0.013944 0.0548608 -0.0342573 0.0134681 0.0540404 
-0.0347759 0.0130499 0.0531573 -0.035289 0.0126327 0.0522733 -0.0355363 0.0122626 0.0513403 
-0.0357836 0.0118924 0.0504072 -0.0363929 0.0381753 0.0695473 -0.0350864 0.037173 0.0694013 
-0.0340473 0.0361952 0.0691867 -0.0330951 0.0352136 0.0689418 -0.0323396 0.0342236 0.0686283 
-0.031642 0.0332258 0.068294 -0.0310891 0.0322087 0.0679077 -0.0305771 0.0311858 0.067511 
-0.0301783 0.0301468 0.0670856 -0.029812 0.0291063 0.0666577 -0.029546 0.0280617 0.0662218 
-0.0293091 0.0270206 0.0657869 -0.0291728 0.0259919 0.0653549 -0.0290637 0.0249711 0.0649232 
-0.0290611 0.0239811 0.0644923 -0.0290833 0.023002 0.0640584 -0.0292159 0.0220714 0.0636111 
-0.0293694 0.021153 0.0631572 -0.0296303 0.0202975 0.0626696 -0.0299069 0.0194539 0.0621728 
-0.0302785 0.0186826 0.0616215 -0.0306604 0.0179219 0.0610605 -0.0311164 0.0172373 0.0604306 
-0.0315778 0.0165612 0.059792 -0.0320873 0.0159594 0.0590772 -0.0325985 0.0153638 0.0583557 
-0.0331298 0.0148368 0.0575597 -0.0336606 0.0143136 0.0567592 -0.0341849 0.0138502 0.0558909 
-0.0347078 0.0133889 0.0550202 -0.035201 0.0129775 0.0540927 -0.0356889 0.012567 0.0531643 
-0.035925 0.0121966 0.0521912 -0.0361611 0.0118261 0.0512181 -0.0373681 0.0361696 0.0729497 
-0.0360338 0.0352764 0.072773 -0.034992 0.0343929 0.0725112 -0.0340415 0.033501 0.0722128 
-0.033298 0.0325903 0.0718311 -0.0326128 0.0316694 0.0714238 -0.0320734 0.0307229 0.0709524 
-0.0315732 0.0297696 0.0704673 -0.0311818 0.0287972 0.0699442 -0.0308206 0.0278232 0.0694166 
-0.0305522 0.0268445 0.0688747 -0.0303104 0.0258694 0.0683327 -0.0301607 0.0249071 0.0677904 
-0.0300361 0.0239529 0.0672485 -0.0300095 0.0230299 0.0667077 -0.0300061 0.0221177 0.0661647 
-0.0301062 0.0212533 0.0656122 -0.0302262 0.0204007 0.0650543 -0.0304488 0.0196087 0.0644696 
-0.0306868 0.0188279 0.0638772 -0.0310177 0.0181151 0.0632393 -0.0313591 0.0174121 0.0625931 
-0.0317752 0.0167789 0.0618875 -0.032197 0.0161534 0.0611743 -0.0326698 0.0155945 0.0603941 
-0.0331447 0.015041 0.0596079 -0.0336441 0.0145474 0.058755 -0.0341434 0.0140571 0.0578981 
-0.0346412 0.0136175 0.0569797 -0.035138 0.0131798 0.056059 -0.0356103 0.0127834 0.0550862 
-0.0360775 0.0123876 0.0541126 -0.0363043 0.0120244 0.0530979 -0.0365312 0.0116611 0.0520832 
-0.0382372 0.0338245 0.0763929 -0.0368855 0.0330574 0.0761821 -0.0358494 0.0322795 0.075869 
-0.0349081 0.0314873 0.0755126 -0.0341821 0.0306629 0.0750584 -0.0335141 0.0298252 0.0745738 
-0.032991 0.0289542 0.0740137 -0.0325052 0.0280751 0.0734369 -0.0321223 0.0271738 0.072814 
-0.0317669 0.0262708 0.0721849 -0.0314963 0.0253627 0.0715364 -0.0312497 0.0244585 0.0708872 
-0.0310863 0.0235684 0.0702359 -0.0309459 0.0226866 0.0695852 -0.0308954 0.0218374 0.0689371 
-0.0308667 0.020999 0.0682878 -0.030935 0.0202087 0.0676335 -0.0310225 0.0194298 0.0669754 
-0.0312086 0.0187099 0.0662973 -0.03141 0.0180006 0.0656132 -0.0317031 0.0173552 0.0648923 
-0.0320068 0.0167188 0.0641644 -0.0323866 0.0161463 0.0633863 -0.0327725 0.0155804 0.0626015 
-0.0332127 0.0150733 0.0617581 -0.0336555 0.0145706 0.0609094 -0.0341275 0.0141189 0.0600008 
-0.0345997 0.0136699 0.0590886 -0.0350755 0.0132621 0.0581202 -0.0355504 0.0128558 0.0571498 
-0.0360055 0.0124815 0.0561312 -0.0364558 0.0121078 0.0551117 -0.0366753 0.0117583 0.0540539 
-0.0368948 0.0114087 0.0529961 -0.0389473 0.0311093 0.0798075 -0.0376005 0.0304852 0.0795586 
-0.0365862 0.0298246 0.0791884 -0.0356684 0.0291426 0.0787685 -0.0349692 0.028412 0.0782356 
-0.0343264 0.0276646 0.0776683 -0.0338243 0.0268749 0.0770147 -0.0333564 0.0260758 0.0763421 
-0.0329834 0.0252508 0.0756168 -0.0326347 0.0244242 0.0748842 -0.0323611 0.0235923 0.0741291 
-0.032109 0.022765 0.0733735 -0.0319305 0.0219537 0.0726158 -0.0317731 0.0211513 0.0718595 
-0.0316976 0.0203837 0.071109 -0.0316427 0.0196272 0.0703585 -0.0316792 0.0189198 0.069609 
-0.0317345 0.0182237 0.068857 -0.0318855 0.0175855 0.068093 -0.0320519 0.0169572 0.0673243 
-0.0323099 0.0163894 0.0665276 -0.0325789 0.0158296 0.0657251 -0.0329265 0.0153275 0.0648809 
-0.0332807 0.0148311 0.0640308 -0.0336934 0.0143851 0.0631296 -0.0341091 0.0139429 0.0622236 
-0.034559 0.0135419 0.0612634 -0.0350094 0.0131429 0.0602997 -0.0354685 0.0127751 0.0592842 
-0.035927 0.0124083 0.0582667 -0.03637 0.0120636 0.0572035 -0.0368083 0.0117193 0.0561396 
-0.0370228 0.01139 0.0550391 -0.0372373 0.0110608 0.0539386 -0.0395047 0.028039 0.0831948 
-0.0381843 0.027574 0.0829036 -0.0372073 0.0270419 0.0824711 -0.0363264 0.02648 0.081982 
-0.0356632 0.0258506 0.0813649 -0.0350532 0.0252003 0.0807094 -0.0345764 0.0244974 0.0799579 
-0.0341301 0.0237837 0.0791855 -0.0337682 0.0230402 0.0783553 -0.033427 0.022295 0.0775174 
-0.03315 0.0215449 0.0766557 -0.0328914 0.0208002 0.0757942 -0.0326967 0.0200742 0.0749327 
-0.032521 0.0193578 0.0740739 -0.0324195 0.0186794 0.0732255 -0.0323376 0.0180124 0.0723789 
-0.0323423 0.0173965 0.0715403 -0.0323654 0.0167918 0.0707009 -0.0324827 0.0162444 0.0698579 
-0.0326156 0.0157066 0.0690116 -0.0328413 0.0152259 0.068146 -0.0330785 0.0147523 0.0672757 
-0.0333977 0.01433 0.0663715 -0.0337242 0.0139125 0.0654622 -0.0341142 0.0135369 0.0645082 
-0.0345076 0.013164 0.0635498 -0.0349406 0.0128222 0.0625419 -0.0353745 0.0124818 0.0615307 
-0.035822 0.0121618 0.0604706 -0.0362691 0.0118422 0.0594085 -0.0367048 0.0115343 0.0583023 
-0.0371359 0.0112264 0.0571953 -0.0373477 0.0109238 0.0560524 -0.0375594 0.0106211 0.0549095 
-0.0398766 0.0246455 0.0864684 -0.0386115 0.0243498 0.0861324 -0.0376921 0.0239538 0.0856331 
-0.0368655 0.0235191 0.0850705 -0.0362496 0.0229967 0.0843645 -0.0356822 0.0224489 0.0836165 
-0.0352361 0.0218377 0.0827636 -0.0348156 0.0212141 0.0818886 -0.0344659 0.0205567 0.0809523 
-0.0341328 0.0198979 0.0800086 -0.033851 0.0192348 0.0790423 -0.0335845 0.0185782 0.0780772 
-0.0333712 0.0179436 0.0771166 -0.033175 0.0173198 0.0761605 -0.0330455 0.016738 0.0752216 
-0.0329347 0.0161682 0.0742865 -0.0329068 0.0156523 0.0733678 -0.0328972 0.0151475 0.0724502 
-0.0329816 0.0147004 0.071538 -0.033082 0.0142621 0.070624 -0.0332781 0.0138778 0.0696994 
-0.0334864 0.0134997 0.068771 -0.0337817 0.0131664 0.0678158 -0.0340848 0.0128368 0.0668562 
-0.0344573 0.0125401 0.0658573 -0.0348339 0.0122451 0.0648542 -0.0352558 0.0119702 0.0638047 
-0.035679 0.011696 0.0627521 -0.0361209 0.0114307 0.0616519 -0.0365625 0.0111653 0.0605498 
-0.0369965 0.0109003 0.0594037 -0.0374259 0.0106351 0.0582567 -0.0376375 0.0103645 0.0570734 
-0.0378491 0.010094 0.0558901 -0.0400552 0.0209155 0.0896237 -0.0388758 0.0207995 0.0892401 
-0.0380349 0.0205476 0.0886695 -0.0372809 0.0202475 0.0880288 -0.0367241 0.0198381 0.0872289 
-0.0362093 0.0193986 0.0863839 -0.0357993 0.018884 0.0854262 -0.0354089 0.0183556 0.0844456 
-0.0350728 0.0177891 0.083402 -0.0347485 0.0172216 0.0823522 -0.0344605 0.016651 0.0812829 
-0.0341846 0.0160881 0.0802168 -0.0339503 0.0155516 0.079162 -0.0337312 0.0150271 0.0781139 
-0.0335716 0.0145496 0.0770921 -0.0334301 0.014085 0.0760764 -0.0333686 0.0136779 0.0750872 
-0.0333257 0.0132822 0.074101 -0.033378 0.0129447 0.0731299 -0.0334471 0.0126157 0.0721586 
-0.0336164 0.0123375 0.071185 -0.0337988 0.0120646 0.0702086 -0.0340746 0.0118298 0.069212 
-0.034359 0.0115975 0.0682114 -0.0347196 0.0113884 0.0671755 -0.0350849 0.0111801 0.0661357 
-0.0355019 0.0109803 0.0650512 -0.0359205 0.0107803 0.0639635 -0.0363629 0.010577 0.0628281 
-0.0368051 0.0103731 0.0616906 -0.0372431 0.0101573 0.0605078 -0.0376765 0.00994114 0.0593242 
-0.0378908 0.00970847 0.0581025 -0.0381051 0.0094758 0.0568808 -0.040044 0.016938 0.0925762 
-0.0389795 0.0170024 0.0921455 -0.0382372 0.0168964 0.0915024 -0.0375732 0.0167329 0.0907821 
-0.0370869 0.0164386 0.0898867 -0.0366343 0.0161098 0.0889433 -0.0362657 0.0156942 0.0878797 
-0.0359096 0.0152635 0.0867933 -0.0355878 0.0147906 0.0856436 -0.0352723 0.0143174 0.0844893 
-0.0349761 0.0138429 0.0833209 -0.0346884 0.0133777 0.0821584 -0.0344297 0.0129441 0.0810162 
-0.0341844 0.0125241 0.0798837 -0.0339916 0.0121574 0.0787887 -0.0338164 0.0118046 0.0777024 
-0.0337197 0.0115141 0.0766543 -0.0336421 0.0112352 0.0756113 -0.0336629 0.0110159 0.0745941 
-0.0337015 0.0108044 0.0735779 -0.0338467 0.0106408 0.072568 -0.0340061 0.0104815 0.071556 
-0.0342669 0.0103531 0.0705293 -0.0345372 0.0102262 0.069499 -0.0348919 0.010112 0.068436 
-0.0352518 0.00999749 0.0673691 -0.0356704 0.00987912 0.0662574 -0.0360909 0.00975968 0.0651425 
-0.0365402 0.00962369 0.0639779 -0.0369894 0.00948665 0.0628111 -0.0374374 0.00932485 0.061596 
-0.0378807 0.00916247 0.0603801 -0.0381005 0.00897179 0.0591228 -0.0383203 0.00878111 0.0578655 
-0.0398182 0.0126807 0.0952996 -0.0389015 0.0129262 0.094822 -0.0382806 0.0129682 0.0941051 
-0.0377264 0.0129434 0.0933038 -0.0373235 0.012767 0.092311 -0.0369439 0.0125514 0.0912675 
-0.0366227 0.0122376 0.0900971 -0.0363054 0.0119073 0.0889043 -0.0359989 0.0115312 0.0876498 
-0.0356923 0.0111555 0.0863931 -0.0353855 0.0107813 0.0851299 -0.0350832 0.010418 0.0838761 
-0.0347964 0.0100929 0.0826544 -0.0345213 0.00978339 0.0814459 -0.0342916 0.00953471 0.0802887 
-0.0340795 0.00930137 0.0791431 -0.0339456 0.00913616 0.0780494 -0.0338319 0.00898294 0.0769629 
-0.0338217 0.00889111 0.0759137 -0.0338307 0.00880676 0.074867 -0.0339549 0.00876727 0.0738349 
-0.0340946 0.00873104 0.0728013 -0.0343455 0.00871823 0.0717576 -0.0346071 0.00870559 0.0707102 
-0.0349624 0.00869447 0.0696312 -0.0353236 0.00868183 0.068548 -0.0357511 0.00865206 0.0674182 
-0.0361807 0.0086203 0.0662849 -0.0366442 0.00855787 0.0650979 -0.0371078 0.00849381 0.0639086 
-0.0375726 0.00839133 0.0626661 -0.0380326 0.008288 0.0614227 -0.0382611 0.00814399 0.0601331 
-0.0384896 0.00799997 0.0588435 -0.0394221 0.00827026 0.0977396 -0.0386757 0.00868874 0.0972191 
-0.0381926 0.00887446 0.0964308 -0.0377625 0.00898479 0.0955506 -0.0374528 0.00892421 0.0944619 
-0.0371546 0.00882001 0.0933198 -0.0368852 0.00860675 0.0920441 -0.03661 0.00837582 0.090747 
-0.0363187 0.00809591 0.0893905 -0.0360202 0.00781761 0.0880349 -0.0356996 0.00754421 0.0866825 
-0.0353792 0.00728418 0.0853435 -0.0350594 0.00707028 0.0840511 -0.0347495 0.00687437 0.082776 
-0.0344785 0.0067486 0.0815686 -0.0342254 0.00663978 0.0803764 -0.0340517 0.00660631 0.0792513 
-0.0338996 0.00658533 0.078136 -0.0338584 0.0066284 0.0770704 -0.0338383 0.00667845 0.0760086 
-0.0339442 0.0067704 0.0749694 -0.0340674 0.00686448 0.0739292 -0.0343136 0.00697379 0.072882 
-0.0345716 0.0070819 0.0718311 -0.0349341 0.00717947 0.0707476 -0.0353031 0.00727424 0.0696597 
-0.0357465 0.00733767 0.068521 -0.0361924 0.00739813 0.0673785 -0.0366771 0.007413 0.0661763 
-0.037162 0.00742563 0.0649715 -0.0376499 0.00738554 0.0637067 -0.0381327 0.00734434 0.0624409 
-0.0383729 0.00724964 0.0611225 -0.0386131 0.00715494 0.0598042 -0.0388172 0.00367194 0.0998319 
-0.0382685 0.00425337 0.0992731 -0.0379432 0.00457758 0.0984166 -0.037655 0.00481868 0.0974602 
-0.0374506 0.00487141 0.0962774 -0.037244 0.0048764 0.0950385 -0.0370319 0.00476206 0.0936594 
-0.0368028 0.00462914 0.0922602 -0.0365266 0.00444479 0.0908053 -0.0362351 0.00426356 0.0893553 
-0.0358967 0.00409194 0.0879203 -0.0355537 0.00393655 0.0865038 -0.035195 0.00383722 0.0851514 
-0.0348446 0.00375878 0.0838214 -0.0345267 0.00376186 0.0825786 -0.0342273 0.00378387 0.081355 
-0.0340106 0.00389005 0.0802164 -0.0338174 0.00400941 0.0790902 -0.0337453 0.00419636 0.0780271 
-0.0336966 0.0043898 0.0769691 -0.0337877 0.00462216 0.0759414 -0.0338981 0.0048554 0.0749129 
-0.0341458 0.0050949 0.073879 -0.0344068 0.00533171 0.0728412 -0.0347844 0.00554486 0.0717676 
-0.0351693 0.00575385 0.0706889 -0.0356372 0.0059161 0.0695528 -0.036108 0.00607435 0.0684123 
-0.0366225 0.00617111 0.0672035 -0.0371372 0.00626498 0.0659918 -0.037656 0.00629107 0.0647111 
-0.0381695 0.00631576 0.0634292 -0.038425 0.00627363 0.0620863 -0.0386804 0.0062315 0.0607435 
-0.0380782 -0.000978311 0.101585 -0.0377397 -0.000247319 0.100994 -0.0375831 0.000206647 0.100075 
-0.0374464 0.000570584 0.0990466 -0.0373549 0.000730448 0.0977728 -0.0372462 0.000838666 0.09644 
-0.0370947 0.000817765 0.0949595 -0.0369138 0.000777589 0.0934603 -0.0366516 0.000684038 0.0919096 
-0.0363651 0.000595578 0.0903683 -0.0360038 0.000522817 0.0888562 -0.0356327 0.000469767 0.0873686 
-0.0352281 0.00048481 0.0859659 -0.0348303 0.000524263 0.0845915 -0.034459 0.000658914 0.0833273 
-0.0341075 0.000814892 0.082087 -0.0338438 0.00106566 0.0809522 -0.0336062 0.00133046 0.0798326 
-0.0335029 0.00166717 0.0787907 -0.0334257 0.00200983 0.0777551 -0.0335052 0.00238823 0.0767568 
-0.0336063 0.00276614 0.0757578 -0.0338613 0.00314055 0.0747535 -0.0341312 0.00351065 0.0737444 
-0.0345311 0.00384288 0.072694 -0.0349391 0.0041695 0.0716376 -0.0354394 0.00443299 0.0705145 
-0.0359427 0.00469139 0.0693862 -0.0364943 0.0048717 0.0681786 -0.0370461 0.00504847 0.0669676 
-0.0376024 0.005142 0.0656764 -0.0381529 0.00523385 0.0643838 -0.0384267 0.00524537 0.0630203 
-0.0387004 0.00525689 0.0616567 -0.0371605 -0.00569779 0.102887 -0.0370488 -0.00483508 0.102272 
-0.0370751 -0.00426299 0.101296 -0.037103 -0.00378681 0.100202 -0.0371344 -0.00352803 0.0988415 
-0.0371321 -0.00332455 0.0974184 -0.0370457 -0.0032593 0.0958391 -0.036916 -0.00321377 0.0942429 
-0.0366661 -0.00322287 0.0925998 -0.0363817 -0.0032243 0.0909717 -0.0359908 -0.00320209 0.0893896 
-0.0355844 -0.00315587 0.0878395 -0.0351246 -0.0030267 0.0863993 -0.0346702 -0.00286882 0.0849945 
-0.034237 -0.00259896 0.0837278 -0.0338254 -0.00230483 0.0824902 -0.0335094 -0.00190288 0.0813822 
-0.033223 -0.00148585 0.0802926 -0.0330879 -0.000991562 0.0792968 -0.0329824 -0.000491895 0.0783083 
-0.0330546 4.00588e-05 0.0773636 -0.0331511 0.000570011 0.0764178 -0.0334211 0.00108562 0.0754644 
-0.0337077 0.00159513 0.0745052 -0.0341396 0.0020511 0.0734956 -0.0345805 0.00249988 0.0724789 
-0.0351233 0.00286783 0.0713826 -0.0356695 0.00322954 0.0702802 -0.0362679 0.00349562 0.069084 
-0.0368665 0.00375748 0.0678839 -0.0374689 0.00392013 0.0665896 -0.0380651 0.00408082 0.0652937 
-0.0383612 0.00414745 0.0639144 -0.0386572 0.00421408 0.0625352 -0.0361491 -0.0103738 0.103834 
-0.0362675 -0.0093928 0.103202 -0.0364826 -0.00871243 0.102174 -0.0366809 -0.00813349 0.101019 
-0.036841 -0.00778446 0.0995725 -0.0369502 -0.00749447 0.0980597 -0.0369316 -0.00735205 0.0963802 
-0.0368543 -0.00722972 0.0946855 -0.0366143 -0.00716306 0.0929488 -0.0363284 -0.00708567 0.0912335 
-0.0359005 -0.00697519 0.0895841 -0.0354509 -0.00683564 0.0879752 -0.0349261 -0.00659563 0.0865066 
-0.0344055 -0.00632187 0.0850819 -0.0339015 -0.00591645 0.0838283 -0.0334214 -0.00548337 0.0826101 
-0.0330478 -0.00492733 0.0815496 -0.0327079 -0.00435503 0.0805109 -0.0325404 -0.00369942 0.0795835 
-0.0324067 -0.00303909 0.0786643 -0.0324752 -0.00235037 0.0777946 -0.032571 -0.00166533 0.076923 
-0.0328627 -0.0010066 0.0760389 -0.0331728 -0.000355865 0.0751477 -0.0336448 0.000224477 0.0741937 
-0.0341267 0.000795984 0.0732311 -0.0347202 0.00126808 0.0721727 -0.0353173 0.00173278 0.0711071 
-0.0359701 0.0020839 0.0699305 -0.036623 0.00243012 0.0687491 -0.0372778 0.00266112 0.0674573 
-0.0379258 0.00288988 0.0661635 -0.038247 0.00301109 0.0647722 -0.0385683 0.0031323 0.063381 
-0.0350016 -0.0149869 0.104267 -0.035355 -0.013907 0.103627 -0.0357674 -0.0131326 0.102555 