# vtk DataFile Version 2.0
vtk output
ASCII
DATASET RECTILINEAR_GRID
DIMENSIONS 34 34 34
X_COORDINATES 34 float
-3.33333 -3.13131 -2.92929 -2.72727 -2.52525 -2.32323 -2.12121 -1.91919 -1.71717 
-1.51515 -1.31313 -1.11111 -0.909091 -0.707071 -0.505051 -0.30303 -0.10101 0.10101 
0.30303 0.50505 0.70707 0.909091 1.11111 1.31313 1.51515 1.71717 1.91919 
2.12121 2.32323 2.52525 2.72727 2.92929 3.13131 3.33333 
Y_COORDINATES 34 float
-10 -9.79798 -9.59596 -9.39394 -9.19192 -8.9899 -8.78788 -8.58586 -8.38384 
-8.18182 -7.9798 -7.77778 -7.57576 -7.37374 -7.17172 -6.9697 -6.76768 -6.56566 
-6.36364 -6.16162 -5.9596 -5.75758 -5.55556 -5.35354 -5.15152 -4.9495 -4.74747 
-4.54545 -4.34343 -4.14141 -3.93939 -3.73737 -3.53535 -3.33333 
Z_COORDINATES 34 float
-10 -9.79798 -9.59596 -9.39394 -9.19192 -8.9899 -8.78788 -8.58586 -8.38384 
-8.18182 -7.9798 -7.77778 -7.57576 -7.37374 -7.17172 -6.9697 -6.76768 -6.56566 
-6.36364 -6.16162 -5.9596 -5.75758 -5.55556 -5.35354 -5.15152 -4.9495 -4.74747 
-4.54545 -4.34343 -4.14141 -3.93939 -3.73737 -3.53535 -3.33333 
POINT_DATA 39304
VECTORS grad float
0.00323626 0.0495397 0.0341671 0.00173128 0.0494394 0.0340913 0.000292423 0.04925 0.0338731 
-0.00111131 0.0490133 0.0335793 -0.00243493 0.0486823 0.0331529 -0.00371204 0.0482965 0.0326495 
-0.0048892 0.0478197 0.0320283 -0.00600305 0.0472851 0.0313325 -0.00699618 0.0466704 0.0305415 
-0.00790606 0.0460005 0.0296848 -0.00867852 0.0452681 0.0287631 -0.0093479 0.0444888 0.0277926 
-0.00987069 0.043669 0.026793 -0.010274 0.0428162 0.0257696 -0.0105312 0.0419467 0.0247553 
-0.0106591 0.0410625 0.0237488 -0.0106512 0.0401846 0.0227872 -0.0105132 0.0393129 0.0218688 
-0.0102588 0.0384682 0.0210258 -0.00988333 0.0376515 0.0202614 -0.00941738 0.0368779 0.0195942 
-0.00884919 0.0361533 0.019037 -0.0082198 0.0354832 0.0185886 -0.00751531 0.0348801 0.0182737 
-0.00677906 0.0343379 0.0180689 -0.00600046 0.0338769 0.0180107 -0.0052168 0.0334786 0.0180545 
-0.00442582 0.0331711 0.018246 -0.00365166 0.0329242 0.018525 -0.0029041 0.032773 0.0189421 
-0.00218942 0.0326777 0.0194287 -0.00153136 0.0326785 0.0200348 -0.000916479 0.0327287 0.0206917 
-0.00038286 0.0328717 0.0214443 0.00315062 0.0500997 0.0357997 0.00158412 0.0499865 0.0357368 
7.77769e-05 0.0497865 0.0355189 -0.0013966 0.0495402 0.0352187 -0.0027928 0.0492 0.0347712 
-0.00414363 0.0488053 0.0342382 -0.00539242 0.0483187 0.0335724 -0.00657659 0.0477741 0.0328225 
-0.00763427 0.0471482 0.0319637 -0.00860472 0.0464664 0.0310299 -0.009429 0.045721 0.0300206 
-0.0101436 0.0449279 0.0289545 -0.0107011 0.0440933 0.0278529 -0.0111304 0.0432251 0.0267223 
-0.0114022 0.0423396 0.0255985 -0.0115347 0.0414388 0.0244807 -0.0115207 0.0405441 0.02341 
-0.0113659 0.0396552 0.0223847 -0.0110852 0.0387932 0.0214404 -0.0106733 0.0379592 0.0205808 
-0.0101633 0.0371685 0.0198269 -0.00954221 0.0364268 0.0191924 -0.00885439 0.0357399 0.0186768 
-0.00808463 0.0351203 0.0183069 -0.00727973 0.034562 0.0180575 -0.00642798 0.0340855 0.0179687 
-0.00556974 0.0336722 0.0179919 -0.00470209 0.0333505 0.0181776 -0.00385142 0.0330902 0.0184598 
-0.00302755 0.0329267 0.0188944 -0.00223784 0.0328198 0.0194061 -0.00150698 0.0328106 0.0200508 
-0.000821373 0.0328516 0.0207525 -0.000220936 0.0329872 0.0215618 0.00306499 0.0506597 0.0374323 
0.00143695 0.0505337 0.0373823 -0.000136868 0.0503229 0.0371647 -0.00168188 0.0500671 0.0368581 
-0.00315067 0.0497177 0.0363896 -0.0045752 0.049314 0.0358269 -0.00589563 0.0488178 0.0351165 
-0.00715013 0.048263 0.0343125 -0.00827236 0.047626 0.033386 -0.00930337 0.0469323 0.0323751 
-0.0101795 0.0461739 0.0312781 -0.0109394 0.0453669 0.0301165 -0.0115314 0.0445177 0.0289128 
-0.0119867 0.043634 0.0276749 -0.0122732 0.0427325 0.0264417 -0.0124104 0.0418151 0.0252125 
-0.0123901 0.0409035 0.0240328 -0.0122186 0.0399975 0.0229005 -0.0119116 0.0391183 0.0218551 
-0.0114633 0.0382669 0.0209003 -0.0109091 0.037459 0.0200596 -0.0102352 0.0367003 0.0193479 
-0.00948898 0.0359966 0.018765 -0.00865396 0.0353605 0.0183402 -0.00778041 0.0347862 0.0180461 
-0.0068555 0.0342941 0.0179266 -0.00592268 0.0338658 0.0179293 -0.00497837 0.03353 0.0181092 
-0.00405117 0.0332561 0.0183946 -0.00315099 0.0330803 0.0188466 -0.00228627 0.0329619 0.0193836 
-0.00148261 0.0329426 0.0200668 -0.000726268 0.0329744 0.0208134 -5.90139e-05 0.0331026 0.0216793 
0.00292065 0.0517012 0.0392691 0.00124175 0.0515534 0.0392374 -0.00039336 0.0513244 0.0390251 
-0.00200522 0.0510522 0.038717 -0.00354555 0.0506871 0.0382305 -0.00504436 0.0502679 0.0376405 
-0.00643838 0.0497552 0.0368853 -0.00776603 0.0491832 0.0360257 -0.00895613 0.0485272 0.0350279 
-0.0100514 0.0478133 0.0339348 -0.0109828 0.0470327 0.0327435 -0.0117915 0.0462023 0.0314784 
-0.0124212 0.045328 0.0301636 -0.0129051 0.0444181 0.0288082 -0.0132084 0.0434892 0.027455 
-0.013352 0.0425435 0.0261037 -0.0133267 0.0416028 0.0248039 -0.0131392 0.0406672 0.0235535 
-0.0128061 0.0397578 0.022396 -0.0123214 0.0388759 0.0213353 -0.0117227 0.0380372 0.0203975 
-0.0109951 0.0372474 0.0195987 -0.0101893 0.0365127 0.0189391 -0.00928752 0.0358456 0.0184503 
-0.00834352 0.0352404 0.0181035 -0.0073432 0.0347179 0.0179459 -0.00633317 0.0342597 0.0179212 
-0.00530905 0.0338948 0.0180892 -0.00430186 0.0335927 0.0183725 -0.00332136 0.0333901 0.018838 
-0.00237731 0.0332461 0.0193969 -0.00149601 0.0332033 0.0201167 -0.000663808 0.0332132 0.020907 
7.5956e-05 0.0333222 0.0218302 0.00277509 0.0527527 0.0411102 0.00104556 0.052583 0.0410969 
-0.000650724 0.0523356 0.04089 -0.00232934 0.0520469 0.0405803 -0.0039412 0.0516659 0.040076 
-0.0055143 0.0512312 0.0394587 -0.00698195 0.0507018 0.0386589 -0.00838281 0.0501124 0.0377435 
-0.00964086 0.0494372 0.0366744 -0.0108004 0.0487028 0.0354991 -0.0117873 0.0479 0.0342132 
-0.0126448 0.0470459 0.0328445 -0.0133122 0.0461464 0.0314183 -0.0138248 0.04521 0.0299453 
-0.014145 0.0442535 0.0284719 -0.014295 0.0432792 0.0269982 -0.0142646 0.0423093 0.025578 
-0.0140612 0.0413436 0.0242093 -0.0137021 0.0404039 0.0229395 -0.0131809 0.0394911 0.0217727 
-0.0125376 0.0386214 0.0207377 -0.0117563 0.0378002 0.0198515 -0.0108909 0.0370342 0.0191149 
-0.00992242 0.0363357 0.0185621 -0.00890793 0.0356995 0.0181623 -0.00783215 0.0351462 0.0179664 
-0.00674485 0.0346578 0.0179142 -0.00564087 0.0342634 0.0180702 -0.0045536 0.0339329 0.0183514 
-0.00349271 0.0337031 0.0188302 -0.00246923 0.0335333 0.0194109 -0.00151019 0.0334668 0.0201672 
-0.000602029 0.0334544 0.0210014 0.000210364 0.033544 0.0219819 0.00259016 0.0536439 0.0431234 
0.000816151 0.0534594 0.0431356 -0.000937603 0.0531992 0.0429407 -0.00268059 0.0528987 0.0426358 
-0.00436327 0.0525064 0.0421181 -0.00601092 0.0520607 0.0414769 -0.00755348 0.0515199 0.0406341 
-0.00902949 0.0509188 0.0396636 -0.0103577 0.0502309 0.0385216 -0.011584 0.0494832 0.0372614 
-0.0126288 0.0486661 0.0358769 -0.0135374 0.0477969 0.0343992 -0.0142448 0.0468814 0.0328557 
-0.0147883 0.0459281 0.0312585 -0.0151272 0.0449539 0.0296578 -0.0152852 0.0439611 0.0280542 
-0.0152514 0.0429718 0.0265061 -0.0150335 0.0419859 0.0250114 -0.0146498 0.0410249 0.0236216 
-0.0140935 0.0400899 0.0223411 -0.013407 0.0391967 0.0212012 -0.0125733 0.0383508 0.0202201 
-0.0116495 0.0375589 0.0193992 -0.0106151 0.0368332 0.0187748 -0.00953079 0.0361688 0.0183145 
-0.00837991 0.0355862 0.018073 -0.00721539 0.0350677 0.017986 -0.00603109 0.0346424 0.0181231 
-0.00486288 0.0342808 0.0183955 -0.00372008 0.0340196 0.0188817 -0.00261526 0.0338187 0.0194789 
-0.00157584 0.0337214 0.0202674 -0.000588723 0.0336791 0.0211417 0.000299968 0.0337401 0.0221773 
0.00240356 0.0545284 0.0451439 0.000585333 0.0543293 0.0451819 -0.00122574 0.0540565 0.0449993 
-0.003033 0.0537445 0.0446994 -0.00478646 0.0533411 0.0441685 -0.00650866 0.0528846 0.0435036 
-0.00812619 0.0523325 0.0426178 -0.00967743 0.0517199 0.0415922 -0.0110759 0.0510197 0.0403774 
-0.012369 0.0502589 0.0390322 -0.0134718 0.0494278 0.0375489 -0.0144318 0.0485439 0.035962 
-0.0151792 0.0476128 0.0343008 -0.0157535 0.0466431 0.0325791 -0.0161113 0.0456516 0.0308509 
-0.0162775 0.0446407 0.029117 -0.0162403 0.0436325 0.0274407 -0.0160079 0.0426268 0.0258197 
-0.0155997 0.0416449 0.0243096 -0.0150084 0.0406879 0.0229151 -0.0142787 0.0397715 0.0216699 
-0.0133927 0.0389012 0.0205936 -0.0124104 0.0380837 0.019688 -0.0113102 0.037331 0.0189918 
-0.0101561 0.0366386 0.0184708 -0.00893017 0.0360266 0.0181833 -0.00768843 0.0354782 0.0180612 
-0.00642379 0.0350219 0.018179 -0.0051746 0.034629 0.0184424 -0.00394983 0.0343363 0.0189357 
-0.00276359 0.0341039 0.0195492 -0.00164369 0.0339757 0.0203697 -0.00057748 0.0339031 0.021284 
0.000387665 0.033935 0.0223746 0.00219555 0.0552101 0.0472793 0.000334814 0.0550011 0.0473505 
-0.00153221 0.0547193 0.0471866 -0.00340258 0.0543988 0.0468979 -0.00522617 0.0539877 0.0463591 
-0.0070226 0.0535241 0.0456753 -0.00871509 0.0529656 0.0447498 -0.0103417 0.0523471 0.0436713 
-0.011811 0.0516413 0.0423848 -0.0131716 0.0508754 0.0409547 -0.0143331 0.0500394 0.039372 
-0.0153452 0.0491507 0.0376748 -0.0161337 0.0482147 0.0358942 -0.0167399 0.0472402 0.0340458 
-0.0171179 0.0462434 0.0321879 -0.0172938 0.0452268 0.0303214 -0.0172551 0.0442117 0.0285144 
-0.0170105 0.043198 0.0267646 -0.0165804 0.0422066 0.0251313 -0.015957 0.0412383 0.0236196 
-0.0151874 0.0403085 0.0222657 -0.0142525 0.0394224 0.02109 -0.0132154 0.0385867 0.020095 
-0.0120531 0.0378129 0.0193216 -0.0108328 0.0370972 0.0187339 -0.00953507 0.0364587 0.0183939 
-0.00821912 0.0358819 0.0182299 -0.00687672 0.0353943 0.0183212 -0.00554872 0.0349687 0.0185683 
-0.00424346 0.0346409 0.0190612 -0.00297678 0.0343727 0.0196838 -0.00177656 0.034207 0.0205297 
-0.000630976 0.0340966 0.0214779 0.000411775 0.03409 0.0226183 0.00198616 0.0558786 0.0494222 
8.30112e-05 0.05566 0.049527 -0.00183988 0.0553694 0.0493823 -0.00377327 0.0550406 0.0491051 
-0.00566696 0.0546221 0.0485589 -0.00753759 0.0541516 0.0478564 -0.00930504 0.053587 0.0468914 
-0.0110071 0.0529629 0.0457603 -0.0125471 0.0522521 0.044402 -0.0139753 0.0514815 0.0428872 
-0.0151955 0.0506411 0.041205 -0.0162598 0.0497483 0.0393973 -0.0170894 0.0488082 0.0374973 
-0.0177277 0.0478296 0.0355221 -0.0181259 0.0468282 0.0335342 -0.0183116 0.0458066 0.0315351 
-0.0182716 0.0447855 0.0295972 -0.0180149 0.0437647 0.0277183 -0.017563 0.0427645 0.0259617 
-0.0169078 0.0417855 0.0243327 -0.0160985 0.040843 0.0228697 -0.0151149 0.0399416 0.0215944 
-0.0140233 0.0390883 0.0205096 -0.0127991 0.0382938 0.0196586 -0.0115127 0.037555 0.0190039 
-0.0101435 0.0368903 0.0186109 -0.00875358 0.0362851 0.0184046 -0.00733359 0.0357663 0.018469 
-0.00592691 0.0353078 0.0186993 -0.00454124 0.0349448 0.0191914 -0.0031942 0.0346403 0.0198227 
-0.00191368 0.0344369 0.0206935 -0.000688694 0.0342881 0.0216751 0.000431738 0.0342425 0.022865 
0.00176315 0.056328 0.0515989 -0.000183117 0.0560994 0.0517417 -0.00216125 0.0557996 0.0516208 
-0.00415632 0.0554621 0.05136 -0.00611824 0.0550371 0.0508107 -0.00806091 0.0545614 0.050094 
-0.00990109 0.0539941 0.0490938 -0.0116764 0.0533688 0.047914 -0.013285 0.0526594 0.046488 
-0.0147788 0.0518918 0.0448921 -0.0160562 0.0510564 0.0431143 -0.0171713 0.05017 0.0412001 
-0.0180412 0.0492375 0.0391848 -0.0187113 0.0482673 0.0370869 -0.0191302 0.0472744 0.0349733 
-0.019327 0.0462613 0.0328455 -0.0192878 0.0452474 0.0307808 -0.019022 0.0442328 0.0287765 
-0.0185521 0.0432364 0.0268997 -0.0178696 0.0422589 0.0251558 -0.0170257 0.0413147 0.0235852 
-0.0159993 0.040408 0.0222108 -0.0148593 0.0395458 0.0210355 -0.0135797 0.038738 0.0201047 
-0.0122338 0.0379821 0.0193797 -0.0107996 0.0372955 0.0189291 -0.00934181 0.036665 0.0186749 
-0.00784996 0.036116 0.0187054 -0.00636988 0.0356245 0.0189115 -0.00490838 0.035224 0.0193948 
-0.0034851 0.0348799 0.0200264 -0.00212764 0.034633 0.0209136 -0.000826242 0.0344393 0.0219202 
0.000369645 0.0343456 0.0231516 0.00153894 0.0567578 0.0537784 -0.000450518 0.0565192 0.0539597 
-0.00248384 0.0562103 0.0538631 -0.00454047 0.0558641 0.053619 -0.00657045 0.0554326 0.0530672 
-0.00858496 0.0549517 0.0523366 -0.0104977 0.0543821 0.0513015 -0.0123459 0.0537561 0.0500735 
-0.0140231 0.0530485 0.04858 -0.0155822 0.0522847 0.0469035 -0.0169166 0.051455 0.0450305 
-0.0180825 0.0505761 0.0430101 -0.0189927 0.0496521 0.0408797 -0.0196945 0.0486916 0.0386596 
-0.0201342 0.0477082 0.0364205 -0.0203422 0.0467048 0.0341646 -0.020304 0.0456994 0.0319733 
-0.0200294 0.0446921 0.029844 -0.0195418 0.0437007 0.0278473 -0.0188324 0.0427257 0.0259886 
-0.0179544 0.0417807 0.0243107 -0.0168857 0.0408697 0.0228371 -0.0156978 0.0399993 0.0215713 
-0.0143634 0.0391788 0.0205605 -0.0129585 0.0384065 0.0197649 -0.0114598 0.0376983 0.0192562 
-0.00993481 0.0370428 0.0189536 -0.00837162 0.0364637 0.0189496 -0.00681861 0.0359392 0.0191309 
-0.00528168 0.035501 0.0196046 -0.00378253 0.0351169 0.0202359 -0.00234844 0.0348262 0.0211386 
-0.000970885 0.0345869 0.0221695 0.000300258 0.0344444 0.0234417 0.00129561 0.0569829 0.0558925 
-0.000737519 0.0567285 0.0561113 -0.00282416 0.0564059 0.0560393 -0.00493922 0.056047 0.0558129 
-0.00703292 0.055607 0.0552606 -0.00911421 0.0551199 0.0545193 -0.011094 0.054549 0.0534538 
-0.0130096 0.053925 0.0521831 -0.0147497 0.0532243 0.0506293 -0.0163689 0.0524706 0.0488801 
-0.0177558 0.0516552 0.0469209 -0.0189684 0.0507935 0.0448042 -0.0199161 0.0498893 0.0425695 
-0.0206479 0.0489504 0.0402385 -0.0211081 0.0479895 0.0378857 -0.021328 0.0470089 0.0355136 
-0.0212929 0.0460252 0.0332071 -0.021013 0.0450385 0.0309638 -0.0205125 0.0440647 0.028857 
-0.0197823 0.0431044 0.0268925 -0.0188771 0.04217 0.0251144 -0.0177741 0.041265 0.0235473 
-0.0165467 0.0403958 0.0221949 -0.0151665 0.0395707 0.021106 -0.0137119 0.0387887 0.0202399 
-0.012158 0.0380643 0.019671 -0.0105748 0.0373879 0.0193164 -0.00894915 0.0367811 0.0192726 
-0.00733172 0.0362247 0.0194226 -0.0057273 0.035748 0.0198787 -0.00415976 0.0353219 0.0205011 
-0.00265573 0.034983 0.0214099 -0.00120834 0.0346926 0.0224553 0.000132448 0.0344937 0.0237578 
0.0010501 0.0571848 0.057999 -0.00102675 0.056914 0.0582554 -0.00316648 0.0565771 0.058208 
-0.00533964 0.056205 0.0579992 -0.00749655 0.0557562 0.0574469 -0.00964405 0.0552628 0.0566951 
-0.0116903 0.0546908 0.0555998 -0.0136725 0.054069 0.0542871 -0.015475 0.0533757 0.0526736 
-0.0171536 0.0526331 0.0508527 -0.0185924 0.0518329 0.0488084 -0.0198514 0.0509896 0.0465965 
-0.0208363 0.0501063 0.0442586 -0.0215979 0.0491905 0.0418181 -0.0220784 0.0482534 0.0393529 
-0.0223104 0.0472972 0.0368659 -0.0222787 0.0463368 0.0344456 -0.0219939 0.0453721 0.0320895 
-0.021481 0.0444174 0.0298738 -0.0207306 0.0434731 0.0278044 -0.019799 0.0425506 0.0259271 
-0.0186627 0.0416528 0.024267 -0.0173968 0.0407859 0.0228284 -0.0159719 0.039957 0.0216616 
-0.0144685 0.0391662 0.0207251 -0.0128605 0.0384261 0.0200957 -0.0112202 0.0377293 0.0196888 
-0.00953304 0.037095 0.0196044 -0.00785215 0.0365068 0.0197225 -0.00618115 0.0359915 0.02016 
-0.00454607 0.0355232 0.0207726 -0.00297286 0.0351357 0.0216864 -0.00145634 0.0347937 0.0227452 
-4.65463e-05 0.0345373 0.024077 0.000769759 0.0572306 0.0599363 -0.00134947 0.0569342 0.0602217 
-0.00353808 0.0565752 0.060193 -0.00576355 0.056183 0.0599975 -0.00797616 0.0557204 0.0594439 
-0.0101813 0.0552169 0.0586825 -0.0122848 0.0546425 0.0575618 -0.014324 0.0540233 0.0562137 
-0.0161797 0.05334 0.0545503 -0.0179088 0.0526126 0.0526697 -0.0193919 0.0518338 0.0505547 
-0.0206905 0.0510164 0.048264 -0.0217075 0.050163 0.0458408 -0.0224953 0.0492803 0.0433098 
-0.0229946 0.0483775 0.0407515 -0.0232387 0.047457 0.0381691 -0.0232125 0.046531 0.035654 
-0.0229267 0.0455997 0.0332035 -0.022407 0.0446752 0.0308959 -0.0216436 0.0437577 0.028737 
-0.0206939 0.0428573 0.0267739 -0.0195337 0.0419761 0.025032 -0.0182396 0.0411202 0.023516 
-0.0167811 0.0402954 0.0222773 -0.0152404 0.0395026 0.0212743 -0.01359 0.0387526 0.0205857 
-0.0119042 0.0380399 0.0201258 -0.0101671 0.0373813 0.0199976 -0.00843398 0.0367635 0.0200789 
-0.00670718 0.03621 0.020491 -0.00501504 0.0356987 0.0210856 -0.00338259 0.03526 0.0219947 
-0.00180662 0.0348626 0.0230565 -0.000336966 0.0345429 0.0244055 0.000484561 0.0572547 0.0618501 
-0.00167687 0.0569313 0.0621632 -0.00391376 0.0565492 0.0621523 -0.00619074 0.0561358 0.0619694 
-0.00845799 0.0556588 0.0614145 -0.0107196 0.0551447 0.0606436 -0.0128791 0.0545678 0.0594982 
-0.0149739 0.053951 0.0581155 -0.0168815 0.0532782 0.0564037 -0.0186598 0.0525667 0.0544649 
-0.0201861 0.05181 0.0522813 -0.0215233 0.0510196 0.0499141 -0.0225719 0.0501973 0.0474081 
-0.0233853 0.049349 0.0447892 -0.0239032 0.0484821 0.0421405 -0.0241595 0.0475988 0.0394654 
-0.0241391 0.0467088 0.0368581 -0.0238529 0.0458125 0.0343158 -0.023327 0.0449197 0.0319186 
-0.0225516 0.0440306 0.0296726 -0.0215849 0.0431537 0.0276255 -0.0204022 0.0422905 0.0258033 
-0.0190813 0.0414468 0.0242112 -0.0175909 0.0406271 0.0229014 -0.0160144 0.0398333 0.0218325 
-0.0143233 0.039074 0.0210848 -0.0125936 0.0383461 0.0205718 -0.0108081 0.0376637 0.0203993 
-0.00902437 0.0370165 0.0204431 -0.00724328 0.0364249 0.0208288 -0.00549555 0.0358706 0.0214045 
-0.00380524 0.0353804 0.0223075 -0.00217117 0.034927 0.0233707 -0.000642933 0.0345432 0.0247355 
0.000144169 0.0572052 0.0635064 -0.00205633 0.0568446 0.0638309 -0.00433494 0.0564302 0.0638256 
-0.00665506 0.0559871 0.0636449 -0.00896632 0.0554888 0.0630836 -0.0112724 0.0549582 0.0623013 
-0.0134752 0.0543749 0.0611345 -0.0156124 0.0537581 0.0597243 -0.0175592 0.053095 0.0579758 
-0.0193746 0.0524001 0.0559942 -0.0209335 0.0516681 0.0537608 -0.0223 0.0509083 0.0513388 
-0.023373 0.0501219 0.0487738 -0.0242068 0.0493139 0.0460923 -0.0247404 0.0484894 0.0433791 
-0.0250084 0.0476503 0.0406379 -0.0249954 0.0468038 0.0379639 -0.0247124 0.0459502 0.0353545 
-0.0241861 0.0450969 0.0328906 -0.0234062 0.0442439 0.0305782 -0.0224316 0.0433979 0.0284657 
-0.0212369 0.0425599 0.0265793 -0.0199007 0.0417353 0.0249245 -0.0183906 0.040927 0.0235542 
-0.0167913 0.040138 0.0224274 -0.0150727 0.0393748 0.0216253 -0.0133126 0.0386362 0.0210618 
-0.0114923 0.0379334 0.0208444 -0.00967127 0.0372594 0.0208485 -0.00784911 0.0366312 0.0212025 
-0.00605877 0.0360343 0.0217525 -0.00432323 0.0354913 0.0226403 -0.00264344 0.0349801 0.0236945 
-0.00106856 0.0345284 0.0250621 -0.000205421 0.0571434 0.0651199 -0.00244447 0.0567439 0.0654531 
-0.00476371 0.0562956 0.0654511 -0.00712555 0.0558215 0.0652711 -0.00947907 0.0553007 0.0647025 
-0.0118277 0.0547527 0.0639084 -0.0140716 0.0541623 0.0627209 -0.0162491 0.0535451 0.0612842 
-0.0182329 0.0528917 0.0595011 -0.0200833 0.0522134 0.0574791 -0.021673 0.0515064 0.0551992 
-0.0230672 0.0507778 0.0527259 -0.0241635 0.0500282 0.0501058 -0.0250169 0.0492614 0.047366 
-0.0255659 0.0484804 0.0445927 -0.0258454 0.0476868 0.0417896 -0.0258399 0.0468851 0.0390533 
-0.0255609 0.0460754 0.036381 -0.025035 0.0452629 0.0338541 -0.0242519 0.0444472 0.0314788 
-0.0232708 0.0436334 0.029304 -0.022066 0.0428218 0.027356 -0.0207163 0.0420174 0.025641 
-0.0191888 0.0412216 0.0242119 -0.0175686 0.0404385 0.0230285 -0.0158248 0.0396721 0.0221727 
-0.0140365 0.0389235 0.0215591 -0.0121836 0.0382009 0.0212967 -0.0103276 0.0375007 0.0212607 
-0.00846656 0.0368359 0.0215822 -0.00663579 0.0361965 0.0221054 -0.00485711 0.0356008 0.0229764 
-0.00313366 0.0350313 0.0240198 -0.00151413 0.0345111 0.0253881 -0.000629082 0.0571177 0.0664251 
-0.00290267 0.0566701 0.0667443 -0.00525473 0.0561792 0.066728 -0.00764849 0.0556653 0.0665335 
-0.0100318 0.055114 0.0659491 -0.012409 0.0545411 0.0651381 -0.014679 0.0539372 0.0639318 
-0.0168811 0.0533137 0.0624751 -0.018887 0.0526655 0.0606698 -0.0207578 0.0520002 0.0586242 
-0.0223655 0.0513156 0.0563191 -0.0237761 0.0506167 0.0538193 -0.0248867 0.0499031 0.0511712 
-0.025753 0.0491777 0.0484024 -0.0263131 0.048441 0.0455987 -0.0266024 0.0476945 0.0427642 
-0.0266053 0.0469395 0.0399949 -0.0263334 0.0461765 0.0372882 -0.0258131 0.0454075 0.0347251 
-0.0250341 0.0446324 0.0323118 -0.0240554 0.0438544 0.0300972 -0.0228509 0.0430731 0.0281073 
-0.0214991 0.0422927 0.0263491 -0.0199666 0.0415136 0.0248751 -0.0183388 0.0407401 0.0236465 
-0.016584 0.0399743 0.0227451 -0.0147818 0.0392193 0.0220871 -0.012911 0.03848 0.021782 
-0.0110346 0.0377561 0.0217061 -0.00914948 0.0370567 0.0219919 -0.00729291 0.0363761 0.0224834 
-0.00548557 0.0357278 0.0233292 -0.00373276 0.0350997 0.024352 -0.00208261 0.0345095 0.0257078 
-0.0010672 0.0570989 0.0676702 -0.00337454 0.0566016 0.0679709 -0.0057579 0.0560663 0.0679368 
-0.00818165 0.0555109 0.067725 -0.0105923 0.0549277 0.067123 -0.0129953 0.0543283 0.0662943 
-0.0152885 0.0537097 0.0650695 -0.0175121 0.0530788 0.0635939 -0.0195373 0.0524348 0.061769 
-0.0214256 0.0517818 0.0597031 -0.0230489 0.0511192 0.0573769 -0.0244735 0.0504496 0.0548553 
-0.0255968 0.0497719 0.0521846 -0.0264745 0.0490878 0.0493924 -0.027045 0.0483957 0.0465643 
-0.0273438 0.0476965 0.0437043 -0.0273553 0.0469887 0.0409077 -0.027091 0.0462727 0.0381721 
-0.0265774 0.045548 0.0355781 -0.025804 0.0448142 0.0331316 -0.0248293 0.0440726 0.0308815 
-0.0236271 0.0433222 0.0288536 -0.0222755 0.0425667 0.0270555 -0.0207406 0.041805 0.0255395 
-0.0191078 0.041042 0.0242679 -0.0173445 0.0402775 0.0233224 -0.0155312 0.0395167 0.0226211 
-0.0136454 0.0387612 0.0222738 -0.0117516 0.0380142 0.0221579 -0.00984518 0.0372806 0.0224074 
-0.00796566 0.036559 0.0228662 -0.00613248 0.0358583 0.0236853 -0.00435312 0.0351716 0.0246854 
-0.00267507 0.0345111 0.0260263 -0.00159295 0.0572407 0.0686101 -0.00393103 0.0566868 0.0688667 
-0.00633844 0.0560993 0.0687943 -0.00878269 0.055494 0.0685472 -0.0112082 0.05487 0.0679164 
-0.0136229 0.0542351 0.0670628 -0.0159237 0.0535926 0.0658196 -0.0181526 0.0529452 0.0643298 
-0.0201809 0.0522967 0.0624962 -0.0220711 0.0516474 0.0604257 -0.0236961 0.0509989 0.0580987 
-0.0251222 0.050351 0.0555794 -0.026248 0.0497025 0.0529128 -0.027129 0.0490535 0.0501262 
-0.0277045 0.0484004 0.0473033 -0.0280097 0.0477437 0.0444482 -0.0280293 0.047079 0.0416543 
-0.0277746 0.0464068 0.0389191 -0.0272715 0.0457237 0.0363218 -0.0265097 0.0450294 0.0338682 
-0.0255466 0.0443231 0.0316066 -0.024356 0.0436034 0.0295623 -0.023015 0.0428729 0.0277435 
-0.0214896 0.0421293 0.0262015 -0.0198644 0.041378 0.0249009 -0.0181064 0.0406165 0.0239222 
-0.0162961 0.0398517 0.0231859 -0.01441 0.0390821 0.0228013 -0.0125136 0.038314 0.022648 
-0.0106012 0.037548 0.0228601 -0.00871407 0.0367873 0.0232828 -0.00687034 0.0360356 0.0240682 
-0.00507959 0.0352914 0.0250365 -0.00338853 0.0345613 0.0263493 -0.00213843 0.0574186 0.0694814 
-0.00450656 0.0568065 0.0696881 -0.00693639 0.0561651 0.0695727 -0.00939901 0.0555081 0.0692863 
-0.0118366 0.0548413 0.0686243 -0.0142597 0.0541687 0.0677441 -0.0165647 0.0535002 0.0664825 
-0.0187951 0.0528344 0.0649795 -0.0208231 0.0521793 0.0631398 -0.0227116 0.0515318 0.061068 
-0.0243351 0.0508956 0.0587449 -0.0257598 0.0502678 0.0562332 -0.0268858 0.0496469 0.0535768 
-0.0277684 0.0490316 0.0508024 -0.0283477 0.0484163 0.0479914 -0.0286587 0.047801 0.045148 
-0.0286862 0.0471786 0.0423634 -0.0284415 0.0465494 0.0396352 -0.0279499 0.0459074 0.0370409 
-0.027201 0.0452521 0.0345861 -0.0262511 0.0445809 0.0323184 -0.0250742 0.0438918 0.0302624 
-0.0237462 0.0431864 0.0284272 -0.0222329 0.0424611 0.026863 -0.0206183 0.0417217 0.0255365 
-0.0188686 0.0409635 0.024527 -0.0170644 0.0401951 0.0237577 -0.0151813 0.039412 0.0233368 
-0.0132858 0.0386232 0.0231467 -0.0113709 0.0378253 0.0233211 -0.0094795 0.0370258 0.023707 
-0.00762868 0.0362233 0.0244571 -0.00582993 0.0354219 0.0253916 -0.00412921 0.0346225 0.0266735 
-0.00277906 0.057881 0.0701079 -0.00517723 0.0572056 0.0702395 -0.00762489 0.0565027 0.0700604 
-0.0100988 0.0557852 0.0697163 -0.012538 0.0550652 0.0690107 -0.0149569 0.0543438 0.0680951 
-0.0172518 0.0536373 0.0668127 -0.0194682 0.0529402 0.0652982 -0.0214804 0.0522658 0.06346 
-0.0233517 0.051607 0.0613987 -0.0249596 0.05097 0.0590956 -0.0263699 0.0503495 0.0566112 
-0.0274853 0.0497438 0.0539872 -0.0283603 0.0491502 0.0512495 -0.0289368 0.0485614 0.0484762 
-0.0292491 0.0479769 0.0456714 -0.0292824 0.0473869 0.0429228 -0.0290477 0.0467918 0.0402281 
-0.0285695 0.0461829 0.0376622 -0.0278375 0.0455598 0.0352305 -0.0269066 0.0449178 0.0329796 
-0.0257508 0.0442545 0.0309332 -0.0244445 0.0435703 0.0291011 -0.0229534 0.0428606 0.0275319 
-0.0213602 0.0421312 0.0261947 -0.019631 0.0413755 0.0251667 -0.0178457 0.0406033 0.0243745 
-0.0159792 0.0398071 0.0239241 -0.0140986 0.0389985 0.0237017 -0.0121958 0.0381703 0.0238391 
-0.0103149 0.0373338 0.0241865 -0.00847197 0.0364828 0.0248953 -0.00668 0.0356267 0.025788 
-0.00498405 0.0347607 0.0270265 -0.00344407 0.0584164 0.0706715 -0.0058723 0.0576764 0.0707216 
-0.0083366 0.05691 0.0704735 -0.0108201 0.0561296 0.0700671 -0.013258 0.0553539 0.0693147 
-0.0156696 0.0545808 0.0683614 -0.0179507 0.0538332 0.0670577 -0.0201492 0.0531017 0.065532 
-0.0221416 0.0524045 0.0636973 -0.0239918 0.051731 0.0616494 -0.0255805 0.0510901 0.0593706 
-0.026973 0.0504734 0.0569184 -0.0280749 0.0498797 0.0543326 -0.0289401 0.0493048 0.051638 
-0.029512 0.0487396 0.048909 -0.0298245 0.048183 0.0461496 -0.029863 0.047623 0.0434438 
-0.0296384 0.0470597 0.0407894 -0.0291741 0.046482 0.0382585 -0.0284601 0.0458894 0.035856 
-0.0275495 0.045275 0.0336278 -0.0264168 0.0446362 0.0315965 -0.0251343 0.0439722 0.0297724 
-0.023668 0.0432774 0.0282027 -0.0220991 0.0425575 0.0268586 -0.0203933 0.0418041 0.0258154 
-0.0186302 0.041028 0.0250028 -0.0167839 0.0402189 0.0245247 -0.0149218 0.0393908 0.024271 
-0.0130349 0.0385327 0.0243717 -0.0111683 0.0376596 0.0246801 -0.00933705 0.0367608 0.0253463 
-0.00755565 0.0358505 0.0261949 -0.00586816 0.0349188 0.027387 -0.00420935 0.0593464 0.0710995 
-0.00667265 0.0585354 0.0710455 -0.00915325 0.057696 0.0707093 -0.011643 0.0568415 0.070223 
-0.0140725 0.0559968 0.0694109 -0.0164669 0.0551576 0.0684095 -0.0187221 0.0543533 0.0670791 
-0.020889 0.0535712 0.0655402 -0.0228473 0.0528347 0.0637115 -0.0246618 0.0521297 0.0616829 
-0.0262175 0.0514679 0.0594379 -0.0275791 0.0508383 0.0570304 -0.0286564 0.0502402 0.0544979 
-0.0295018 0.0496677 0.0518635 -0.0300615 0.0491107 0.0491975 -0.0303682 0.0485673 0.0465035 
-0.0304081 0.0480232 0.0438609 -0.0301916 0.0474784 0.0412678 -0.0297411 0.0469196 0.0387925 
-0.0290468 0.0463462 0.0364401 -0.0281598 0.0457495 0.0342543 -0.0270549 0.0451264 0.032257 
-0.0258022 0.044475 0.0304588 -0.0243681 0.0437889 0.028905 -0.0228319 0.0430734 0.0275688 
-0.0211594 0.0423186 0.0265228 -0.019429 0.0415359 0.0257005 -0.0176146 0.0407126 0.0252026 
-0.0157832 0.0398645 0.0249233 -0.0139249 0.0389774 0.0249893 -0.0120857 0.0380694 0.0252585 
-0.0102793 0.0371255 0.0258775 -0.00852158 0.0361646 0.0266754 -0.00685538 0.0351718 0.0278098 
-0.00500364 0.0603906 0.0714882 -0.00750348 0.0595068 0.0713237 -0.0100003 0.0585916 0.0708937 
-0.0124955 0.0576598 0.0703226 -0.0149143 0.0567422 0.069447 -0.0172887 0.0558327 0.0683945 
-0.0195144 0.0549673 0.0670358 -0.0216458 0.0541299 0.065483 -0.023566 0.0533493 0.0636611 
-0.0253404 0.0526079 0.0616535 -0.0268592 0.0519203 0.059445 -0.0281862 0.0512729 0.0570859 
-0.0292354 0.0506657 0.054611 -0.0300583 0.050091 0.0520419 -0.0306034 0.0495377 0.0494442 
-0.0309028 0.0490031 0.0468214 -0.0309428 0.0484708 0.044248 -0.0307339 0.0479408 0.0417221 
-0.0302972 0.0473973 0.0393086 -0.0296232 0.0468399 0.0370121 -0.0287606 0.0462578 0.0348746 
-0.0276849 0.0456479 0.0329167 -0.0264637 0.0450069 0.0311496 -0.025064 0.0443278 0.0296163 
-0.0235629 0.0436152 0.0282923 -0.0219266 0.0428579 0.0272471 -0.020232 0.0420678 0.0264182 
-0.0184528 0.0412299 0.0259028 -0.0166555 0.0403618 0.0255996 -0.0148297 0.0394459 0.0256316 
-0.0130216 0.0385035 0.0258614 -0.011244 0.0375154 0.026432 -0.00951365 0.0365049 0.0271771 
-0.00787245 0.0354523 0.0282507 -0.00590735 0.0619188 0.0718829 -0.00845524 0.0609505 0.0715881 
-0.010973 0.0599444 0.0710463 -0.0134748 0.0589184 0.0703734 -0.0158788 0.0579094 0.0694202 
-0.0182262 0.0569103 0.0683042 -0.0204121 0.0559642 0.0669082 -0.0224957 0.0550517 0.0653346 
-0.0243644 0.0542075 0.063516 -0.0260848 0.0534103 0.0615282 -0.027553 0.052678 0.0593582 
-0.0288323 0.0519944 0.0570515 -0.0298418 0.0513598 0.0546409 -0.0306317 0.0507652 0.0521455 
-0.0311536 0.0501981 0.0496265 -0.0314385 0.0496555 0.0470866 -0.0314735 0.0491187 0.0445954 
-0.0312686 0.0485876 0.0421508 -0.0308436 0.0480445 0.0398135 -0.0301892 0.0474888 0.037588 
-0.0293519 0.0469082 0.0355138 -0.0283076 0.0462994 0.0336106 -0.0271212 0.0456578 0.0318891 
-0.0257605 0.0449761 0.0303905 -0.0243 0.0442582 0.0290917 -0.0227065 0.043492 0.0280593 
-0.0210551 0.0426894 0.027234 -0.0193196 0.0418338 0.026709 -0.0175656 0.0409437 0.0263879 
-0.0157821 0.0399992 0.0263887 -0.0140151 0.0390236 0.0265799 -0.0122768 0.0379945 0.0270991 
-0.0105843 0.0369386 0.0277863 -0.00897816 0.0358324 0.0287899 -0.00684656 0.0636038 0.0722795 
-0.00944622 0.0625473 0.071848 -0.0119865 0.0614456 0.0711887 -0.0144952 0.0603199 0.0704084 
-0.0168832 0.0592135 0.069373 -0.0192011 0.0581184 0.0681895 -0.0213439 0.0570852 0.0667532 
-0.0233758 0.0560913 0.0651566 -0.0251886 0.0551771 0.0633401 -0.0268504 0.0543179 0.0613718 
-0.0282638 0.0535348 0.0592409 -0.029491 0.0528088 0.056988 -0.0304571 0.052141 0.0546437 
-0.0312105 0.0515207 0.0522248 -0.0317064 0.0509344 0.0497879 -0.0319747 0.0503782 0.0473349 
-0.0320029 0.0498316 0.0449299 -0.0318009 0.0492943 0.0425711 -0.0313868 0.0487466 0.0403148 
-0.030752 0.0481881 0.0381653 -0.02994 0.0476046 0.0361593 -0.0289279 0.0469929 0.0343156 
-0.0277774 0.0463473 0.0326445 -0.0264571 0.0456599 0.0311851 -0.025039 0.0449341 0.0299158 
-0.0234906 0.0441569 0.0288998 -0.0218848 0.04334 0.0280815 -0.0201958 0.0424657 0.0275496 
-0.0184878 0.041553 0.0272125 -0.0167498 0.0405799 0.027183 -0.0150274 0.0395716 0.0273358 
-0.0133317 0.0385026 0.0278026 -0.0116804 0.0374027 0.0284303 -0.0101126 0.0362448 0.029361 
-0.00791779 0.065841 0.0728414 -0.0105881 0.0646739 0.0722532 -0.0131603 0.0634512 0.071457 