# vtk DataFile Version 3.0
vtk output
ASCII
DATASET RECTILINEAR_GRID
FIELD FieldData 2
base_index 1 3 int
68 0 68 
avtOriginalBounds 1 6 double
3.33333 10 -10 -3.33333 3.33333 10 
DIMENSIONS 34 34 34
X_COORDINATES 34 float
3.33333 3.53535 3.73737 3.93939 4.14141 4.34343 4.54545 4.74747 4.94949 
5.15152 5.35354 5.55556 5.75758 5.9596 6.16162 6.36364 6.56566 6.76768 
6.9697 7.17172 7.37374 7.57576 7.77778 7.9798 8.18182 8.38384 8.58586 
8.78788 8.9899 9.19192 9.39394 9.59596 9.79798 10 
Y_COORDINATES 34 float
-10 -9.79798 -9.59596 -9.39394 -9.19192 -8.9899 -8.78788 -8.58586 -8.38384 
-8.18182 -7.9798 -7.77778 -7.57576 -7.37374 -7.17172 -6.9697 -6.76768 -6.56566 
-6.36364 -6.16162 -5.9596 -5.75758 -5.55556 -5.35354 -5.15152 -4.9495 -4.74747 
-4.54545 -4.34343 -4.14141 -3.93939 -3.73737 -3.53535 -3.33333 
Z_COORDINATES 34 float
3.33333 3.53535 3.73737 3.93939 4.14141 4.34343 4.54545 4.74747 4.94949 
5.15152 5.35354 5.55556 5.75758 5.9596 6.16162 6.36364 6.56566 6.76768 
6.9697 7.17172 7.37374 7.57576 7.77778 7.9798 8.18182 8.38384 8.58586 
8.78788 8.9899 9.19192 9.39394 9.59596 9.79798 10 
POINT_DATA 39304
FIELD FieldData 1
grad 3 39304 float
0.0223915 0.0698239 -0.0160252 0.0204646 0.0685071 -0.0170225 0.0187935 0.0672406 -0.0186165 
0.0171392 0.0660079 -0.0205199 0.0155229 0.0648516 -0.0231244 0.0138589 0.0636945 -0.0259827 
0.0120756 0.0625353 -0.0294757 0.0102512 0.0613296 -0.0331342 0.00831277 0.0599954 -0.0372511 
0.00639948 0.0585938 -0.0414391 0.0045636 0.0569846 -0.0458466 0.00283663 0.0553383 -0.0502223 
0.0014859 0.0535637 -0.0544881 0.000287888 0.0518398 -0.058605 -0.000314529 0.0503131 -0.0621411 
-0.00080328 0.0489426 -0.0654235 -0.000786856 0.0482664 -0.067579 -0.000762023 0.0477886 -0.0694448 
-0.00069409 0.0483274 -0.0698261 -0.000713807 0.0490044 -0.0699736 -0.00125942 0.0505106 -0.0687182 
-0.0019196 0.0520514 -0.0673299 -0.0034008 0.0538393 -0.0649897 -0.00496304 0.0555916 -0.0626002 
-0.00723844 0.0570297 -0.0597776 -0.00954649 0.0584133 -0.0569498 -0.0122217 0.0591853 -0.0540643 
-0.0148973 0.0599141 -0.0511884 -0.0175787 0.059981 -0.0484586 -0.0202494 0.0600236 -0.0457386 
-0.0226672 0.0594936 -0.0432517 -0.0250584 0.0589545 -0.0407702 -0.0261768 0.0579836 -0.0385466 
-0.0272953 0.0570127 -0.036323 0.0210937 0.0725272 -0.0127958 0.0191757 0.0710883 -0.0139097 
0.0175504 0.0697113 -0.015717 0.0159359 0.0683734 -0.0178822 0.0143462 0.0671245 -0.0208591 
0.0126886 0.0658801 -0.024128 0.0108613 0.0646471 -0.0281269 0.00897489 0.0633722 -0.0323201 
0.00692514 0.061981 -0.0370512 0.00490107 0.0605243 -0.0418786 0.00295622 0.0588656 -0.0470032 
0.00114932 0.0571688 -0.0521135 -0.000180979 0.0553402 -0.0571746 -0.00130726 0.0535619 -0.0620776 
-0.00163786 0.0519796 -0.0663642 -0.00181084 0.0505594 -0.0703452 -0.00128326 0.0498593 -0.0729683 
-0.000742545 0.0493673 -0.0752259 -0.000134513 0.0499418 -0.0756109 0.000352875 0.050659 -0.0757071 
0.000116406 0.0522316 -0.0740703 -0.000274546 0.0538353 -0.0722842 -0.00177263 0.0556615 -0.0694273 
-0.00337568 0.0574461 -0.0665266 -0.00590252 0.058865 -0.0632409 -0.00846918 0.0602254 -0.0599592 
-0.0114837 0.0609273 -0.0567235 -0.0144976 0.0615841 -0.0535033 -0.0175012 0.0615495 -0.0505227 
-0.0204914 0.0614899 -0.0475547 -0.023166 0.0608449 -0.0448862 -0.0258111 0.0601909 -0.042224 
-0.0270386 0.059105 -0.0398635 -0.0282662 0.0580191 -0.0375031 0.0197958 0.0752304 -0.00956653 
0.0178868 0.0736694 -0.010797 0.0163072 0.0721819 -0.0128174 0.0147327 0.070739 -0.0152446 
0.0131695 0.0693973 -0.0185938 0.0115183 0.0680657 -0.0222732 0.00964689 0.0667589 -0.0267781 
0.00769863 0.0654147 -0.0315059 0.00553751 0.0639665 -0.0368513 0.00340267 0.0624547 -0.0423182 
0.00134885 0.0607466 -0.0481597 -0.000537967 0.0589994 -0.0540047 -0.00184785 0.0571167 -0.0598611 
-0.00290241 0.055284 -0.0655503 -0.00296119 0.0536461 -0.0705874 -0.0028184 0.0521761 -0.0752669 
-0.00177966 0.0514521 -0.0783575 -0.000723066 0.0509459 -0.081007 0.000425062 0.0515563 -0.0813957 
0.00141955 0.0523136 -0.0814405 0.00149223 0.0539526 -0.0794225 0.0013705 0.0556191 -0.0772385 
-0.00014446 0.0574836 -0.0738649 -0.00178833 0.0593006 -0.070453 -0.00456661 0.0607004 -0.0667042 
-0.00739189 0.0620374 -0.0629686 -0.0107457 0.0626693 -0.0593826 -0.0140978 0.0632541 -0.0558182 
-0.0174237 0.0631179 -0.0525868 -0.0207334 0.0629562 -0.0493708 -0.0236649 0.0621962 -0.0465207 
-0.0265638 0.0614273 -0.0436777 -0.0279004 0.0602264 -0.0411805 -0.0292371 0.0590254 -0.0386832 
0.0180024 0.0808834 -0.00603189 0.0161376 0.0791094 -0.00742897 0.0146381 0.0774265 -0.00970087 
0.0131382 0.0757986 -0.0124219 0.0116376 0.0742953 -0.016161 0.0100285 0.0728173 -0.0202639 
0.00814808 0.0714023 -0.0252765 0.00616995 0.0699685 -0.0305417 0.00392131 0.0684825 -0.0365063 
0.00169439 0.0669494 -0.0426271 -0.000465555 0.0652711 -0.04923 -0.00243144 0.0635623 -0.0558716 
-0.00372694 0.0617481 -0.0626476 -0.00470854 0.0599846 -0.0692622 -0.00446598 0.0584189 -0.0752475 
-0.00396686 0.0570203 -0.0808143 -0.00232746 0.0563643 -0.0845212 -0.000665663 0.0559255 -0.0876808 
0.00111101 0.0566003 -0.0880352 0.00268875 0.057415 -0.0879722 0.00307296 0.0590697 -0.0854045 
0.00321229 0.0607394 -0.0826569 0.00159669 0.0625163 -0.0786202 -0.000174033 0.0642349 -0.0745585 
-0.00330982 0.0654394 -0.0702764 -0.00649771 0.0665751 -0.0660209 -0.0102716 0.0669378 -0.0620652 
-0.0140405 0.0672513 -0.0581385 -0.0177326 0.0668111 -0.0546555 -0.0214046 0.0663453 -0.051191 
-0.024606 0.0652782 -0.0481608 -0.0277716 0.0642024 -0.0451387 -0.0292174 0.0627133 -0.0425035 
-0.0306633 0.0612242 -0.0398683 0.0161987 0.0865978 -0.00249092 0.0143788 0.0846089 -0.00405568 
0.0129601 0.0827289 -0.00657981 0.0115356 0.0809143 -0.00959533 0.0100984 0.079248 -0.0137247 
0.00853212 0.0776224 -0.0182515 0.00664336 0.0760985 -0.0237718 0.00463602 0.0745746 -0.0295743 
0.00230036 0.0730512 -0.0361582 -1.82485e-05 0.0714975 -0.0429334 -0.00228426 0.0698507 -0.0502984 
-0.0043292 0.0681822 -0.0577381 -0.00561044 0.0664389 -0.0654362 -0.00651907 0.0647472 -0.072979 
-0.00597454 0.0632563 -0.0799167 -0.00511826 0.0619316 -0.0863747 -0.00287634 0.0613456 -0.090701 
-0.000607469 0.060976 -0.0943732 0.00179959 0.0617156 -0.0946925 0.00396217 0.0625881 -0.0945204 
0.00465796 0.0642576 -0.0913996 0.00505818 0.0659292 -0.088085 0.00334019 0.067616 -0.0833821 
0.00144082 0.0692333 -0.0786677 -0.00205469 0.0702388 -0.0738508 -0.00560736 0.0711696 -0.069074 
-0.009803 0.0712589 -0.0647484 -0.0139903 0.0712969 -0.0604589 -0.0180495 0.0705485 -0.0567244 
-0.0220847 0.0697745 -0.0530113 -0.0255564 0.0683961 -0.0498011 -0.028989 0.0670096 -0.0465998 
-0.0305439 0.0652287 -0.0438267 -0.0320989 0.0634479 -0.0410536 0.0140258 0.0925503 0.0009005 
0.0122745 0.0904026 -0.000914918 0.010961 0.0883755 -0.00372997 0.00964402 0.0864253 -0.00705575 
0.00831936 0.0846494 -0.0115392 0.00685578 0.0829394 -0.0164378 0.00504489 0.081394 -0.0223742 
0.00310122 0.0798874 -0.0286146 0.000789856 0.0784884 -0.0356966 -0.00151159 0.0771031 -0.043003 
-0.00378243 0.0757598 -0.0510015 -0.00581725 0.0744293 -0.0591161 -0.00703671 0.073143 -0.0676318 
-0.00784065 0.0719163 -0.0760118 -0.00702408 0.0709221 -0.0838622 -0.00585289 0.0700677 -0.0911824 
-0.00310553 0.0698343 -0.0961467 -0.000333614 0.0697696 -0.100351 0.00256423 0.0705696 -0.100657 
0.00517042 0.0714598 -0.100401 0.00602671 0.0728904 -0.0967691 0.00654019 0.0742995 -0.0929352 
0.00459691 0.0755536 -0.087655 0.00245119 0.0767297 -0.0823776 -0.00147593 0.0772194 -0.0771255 
-0.00546151 0.077633 -0.0719248 -0.0101046 0.0771897 -0.0673026 -0.014734 0.0766963 -0.0627218 
-0.0191535 0.0754339 -0.058775 -0.0235443 0.0741474 -0.0548515 -0.0272576 0.0722963 -0.0514742 
-0.0309287 0.0704382 -0.0481064 -0.0325742 0.0682423 -0.0451931 -0.0342196 0.0660465 -0.0422797 
0.0118372 0.0985128 0.00428553 0.0101555 0.0962088 0.00221593 0.00894822 0.0940367 -0.000891685 
0.00774011 0.0919531 -0.00452839 0.00653015 0.0900699 -0.00936439 0.00517178 0.0882781 -0.0146326 
0.00344244 0.0867149 -0.0209811 0.00156639 0.0852302 -0.0276551 -0.00071594 0.0839626 -0.03523 
-0.00299558 0.0827536 -0.0430625 -0.00526696 0.0817254 -0.0516891 -0.00728786 0.0807455 -0.0604733 
-0.00844352 0.0799327 -0.0698023 -0.00914143 0.0791878 -0.0790154 -0.00805408 0.0787083 -0.0877769 
-0.00656978 0.078341 -0.0959582 -0.00332111 0.0784722 -0.101561 -5.0584e-05 0.0787225 -0.106297 
0.00333212 0.0795827 -0.106592 0.0063759 0.0804888 -0.106253 0.00738625 0.0816699 -0.102112 
0.0080067 0.0828051 -0.0977609 0.00583291 0.0836119 -0.091907 0.00343584 0.0843324 -0.0860705 
-0.00092595 0.0842928 -0.0803874 -0.00534733 0.0841758 -0.0747669 -0.010439 0.083189 -0.0698514 
-0.0155115 0.0821533 -0.0649823 -0.0202911 0.0803681 -0.0608249 -0.025037 0.0785605 -0.0566925 
-0.0289908 0.0762298 -0.0531487 -0.0328992 0.0738932 -0.0496149 -0.0346343 0.0712771 -0.0465613 
-0.0363694 0.068661 -0.0435077 0.00939992 0.103897 0.00728835 0.00780937 0.101484 0.00485816 
0.00673563 0.0992188 0.00141539 0.0056771 0.0970585 -0.00254187 0.00465304 0.0951358 -0.00766535 
0.0034907 0.0933385 -0.0132141 0.00198262 0.0918551 -0.0198259 0.000330822 0.0905031 -0.0267665 
-0.00171895 0.0895153 -0.0346175 -0.00376876 0.0886503 -0.0427385 -0.00581865 0.0881639 -0.0516916 
-0.00762185 0.0877823 -0.0608198 -0.00857288 0.0877629 -0.0705524 -0.00906751 0.08783 -0.08018 
-0.00778219 0.0882349 -0.0893981 -0.00610511 0.0887086 -0.0980216 -0.00268679 0.0894885 -0.104003 
0.000733014 0.0903022 -0.109081 0.00416056 0.0912886 -0.109528 0.00721787 0.0922486 -0.109313 
0.00805378 0.0930495 -0.105131 0.00847549 0.0937706 -0.100731 0.00592883 0.0939201 -0.0947718 
0.00315055 0.0939742 -0.0888292 -0.00166596 0.0931889 -0.0830303 -0.006539 0.0923261 -0.0772929 
-0.0120479 0.0905915 -0.0722478 -0.017531 0.0888105 -0.0672479 -0.0226172 0.0863166 -0.0629426 
-0.0276643 0.0838033 -0.0586619 -0.0317902 0.0808344 -0.0549596 -0.0358684 0.0778615 -0.0512673 
-0.0376557 0.0747012 -0.0480575 -0.039443 0.0715409 -0.0448476 0.00694645 0.109244 0.0102662 
0.00544844 0.106724 0.0074685 0.00451001 0.10437 0.00368782 0.00360371 0.102136 -0.000590625 
0.00277022 0.100179 -0.00599735 0.00180981 0.0983808 -0.0118208 0.000532105 0.0969834 -0.0186861 
-0.000885219 0.0957714 -0.0258825 -0.00268917 0.0950731 -0.0339955 -0.00449557 0.094563 -0.0423894 
-0.00630949 0.0946332 -0.0516495 -0.00788171 0.0948661 -0.0611003 -0.00861892 0.0956609 -0.07121 
-0.00890394 0.0965615 -0.0812248 -0.00742539 0.0978749 -0.0908697 -0.00556338 0.0992129 -0.0999081 
-0.00199704 0.10066 -0.106251 0.00154925 0.102053 -0.111658 0.00499295 0.10317 -0.112267 
0.00803612 0.104187 -0.11219 0.00867616 0.104599 -0.107998 0.0088792 0.104897 -0.103579 
0.0059504 0.104375 -0.097546 0.00278243 0.103749 -0.0915269 -0.00249009 0.102204 -0.0856328 
-0.00781583 0.100581 -0.0797982 -0.01374 0.0980855 -0.0746341 -0.0196315 0.0955459 -0.0695138 
-0.0250209 0.0923313 -0.0650648 -0.0303656 0.0891002 -0.0606397 -0.0346592 0.0854827 -0.0567794 
-0.0389027 0.0818632 -0.0529291 -0.0407397 0.0781506 -0.049562 -0.0425768 0.0744381 -0.0461949 
0.00432716 0.113154 0.0130058 0.00295535 0.110565 0.00973583 0.00219809 0.108169 0.00556722 
0.00150387 0.105917 0.000945686 0.000952563 0.103991 -0.00470251 0.000305663 0.102261 -0.0107361 
-0.000580222 0.101023 -0.0177331 -0.00158262 0.100024 -0.0250424 -0.00290766 0.0996846 -0.0332164 
-0.00422981 0.0995969 -0.041655 -0.00554303 0.100285 -0.0509095 -0.00663732 0.101194 -0.0603358 
-0.0069753 0.102863 -0.0703558 -0.00691616 0.104662 -0.0802728 -0.00530827 0.106966 -0.0897879 
-0.00338512 0.109262 -0.0987272 -6.07492e-05 0.11152 -0.105108 0.00319768 0.113648 -0.110613 
0.00611828 0.115113 -0.111631 0.00862584 0.116405 -0.111994 0.00865523 0.116659 -0.108427 
0.00825091 0.116754 -0.104621 0.00473838 0.115712 -0.0991034 0.000993294 0.114544 -0.0935745 
-0.00479832 0.112261 -0.087943 -0.0106342 0.109892 -0.0823523 -0.0169683 0.106549 -0.0772208 
-0.0232601 0.10316 -0.0721239 -0.0289016 0.0990809 -0.0675567 -0.0344914 0.0949885 -0.0630105 
-0.0388648 0.0905762 -0.0589586 -0.0431864 0.0861646 -0.0549165 -0.0450214 0.0817836 -0.0513413 
-0.0468564 0.0774026 -0.047766 0.00169314 0.116937 0.0157242 0.000450527 0.114281 0.0119727 
-0.000121503 0.111848 0.00741168 -0.000598315 0.109582 0.00244511 -0.00085929 0.107693 -0.00344084 
-0.00118276 0.106038 -0.00967879 -0.00166248 0.104966 -0.0167967 -0.00223392 0.104186 -0.0242062 
-0.00305933 0.104212 -0.0324234 -0.00387582 0.104553 -0.0408864 -0.0046648 0.105864 -0.0501074 
-0.00525922 0.107454 -0.0594784 -0.00518149 0.110003 -0.0693672 -0.00476625 0.112706 -0.0791432 
-0.00303469 0.116009 -0.0884791 -0.00106139 0.119271 -0.0972737 0.00198634 0.122352 -0.103663 
0.00492008 0.125228 -0.109246 0.00726964 0.127061 -0.110695 0.00919525 0.128648 -0.111525 
0.00857711 0.128764 -0.108639 0.00753089 0.128677 -0.105501 0.00341673 0.127128 -0.100552 
-0.000922148 0.125429 -0.0955642 -0.00723846 0.122411 -0.0902272 -0.0135897 0.119298 -0.0849107 
-0.0203332 0.115098 -0.0798253 -0.0270245 0.110852 -0.0747646 -0.0329136 0.105896 -0.0700815 
-0.0387438 0.100929 -0.0654162 -0.0431892 0.0957093 -0.0611699 -0.0475811 0.0904927 -0.0569329 
-0.0494095 0.0854329 -0.053145 -0.0512378 0.0803732 -0.049357 -0.00103787 0.118651 0.0185119 
-0.00210444 0.115972 0.014195 -0.00242945 0.113552 0.00918759 -0.00261758 0.111321 0.00383584 
-0.00249541 0.109519 -0.00229647 -0.0023902 0.10798 -0.00873463 -0.00232741 0.1071 -0.0159374 
-0.00231924 0.10655 -0.023399 -0.00246235 0.106914 -0.0315774 -0.00258544 0.10764 -0.0399709 
-0.00264681 0.109478 -0.0490276 -0.00254879 0.111639 -0.0582036 -0.0019001 0.114914 -0.0677923 
-0.00100284 0.118371 -0.0772636 0.000863928 0.122543 -0.0862768 0.00286274 0.126677 -0.0948098 
0.00544847 0.130645 -0.101209 0.00784764 0.134383 -0.106906 0.00929066 0.136945 -0.109 
0.0102925 0.139215 -0.11053 0.0086473 0.139725 -0.108672 0.00658454 0.139975 -0.106543 
0.0015294 0.138357 -0.102469 -0.00373365 0.136541 -0.0983107 -0.0108263 0.132983 -0.0934194 
-0.0179347 0.129301 -0.0885157 -0.0252204 0.124218 -0.0834736 -0.0324362 0.119081 -0.0784405 
-0.0385794 0.113111 -0.0735458 -0.0446525 0.107132 -0.0686645 -0.0490778 0.100959 -0.0640994 
-0.0534486 0.0947919 -0.0595435 -0.0552052 0.0889501 -0.0554303 -0.0569619 0.0831084 -0.0513171 
-0.00377989 0.120129 0.0213074 -0.0046651 0.117433 0.0164156 -0.00473608 0.115031 0.0109557 
-0.00462741 0.112841 0.00521423 -0.00411155 0.111131 -0.00116542 -0.00356571 0.109713 -0.00780334 
-0.00294491 0.109027 -0.0150869 -0.00234025 0.108709 -0.0225951 -0.0017803 0.109409 -0.0307255 
-0.00118866 0.110514 -0.0390388 -0.000499309 0.112869 -0.0479161 0.000313042 0.115588 -0.0568815 
0.00155032 0.11957 -0.0661508 0.00294392 0.123765 -0.0752987 0.0049472 0.128792 -0.0839729 
0.00696873 0.133788 -0.0922312 0.0090714 0.13865 -0.0986409 0.0109121 0.143262 -0.104455 
0.0114105 0.146596 -0.107219 0.0114498 0.149591 -0.109476 0.00873434 0.150556 -0.108685 
0.00561248 0.151202 -0.107604 -0.000422196 0.149565 -0.104438 -0.00664696 0.147679 -0.101143 
-0.0145445 0.143603 -0.0967148 -0.0224376 0.139372 -0.0922397 -0.0302805 0.133403 -0.0872405 
-0.0380351 0.127372 -0.082234 -0.0444331 0.120371 -0.0771168 -0.0507494 0.113365 -0.0720085 
-0.0551441 0.106221 -0.0671105 -0.0594834 0.0990878 -0.0622216 -0.061161 0.0924523 -0.0577703 
-0.0628385 0.0858168 -0.0533191 -0.00650777 0.119236 0.0243065 -0.0071706 0.116594 0.0187901 
-0.006936 0.114269 0.0128356 -0.00647529 0.112168 0.00666272 -0.00550208 0.110575 -5.22268e-06 
-0.00444718 0.109289 -0.00688404 -0.00318805 0.10877 -0.01429 -0.00190036 0.108639 -0.0218887 
-0.000533567 0.10958 -0.0300212 0.000882454 0.110952 -0.0383134 0.00245027 0.113658 -0.047098 
0.0041087 0.116767 -0.0559587 0.00608017 0.121264 -0.0650819 0.00811706 0.126021 -0.0741043 
0.0104091 0.131794 -0.0827328 0.0125975 0.137587 -0.0910186 0.0143254 0.143474 -0.0977814 
0.0156888 0.149144 -0.104042 0.0151847 0.153694 -0.10773 0.0141656 0.157885 -0.11095 
0.0100571 0.159913 -0.111359 0.00552879 0.161548 -0.111443 -0.00200764 0.160374 -0.109205 
-0.00971558 0.158868 -0.106778 -0.0189327 0.154441 -0.10269 -0.0281092 0.149808 -0.0985104 
-0.0368285 0.142854 -0.0933044 -0.0454254 0.135822 -0.088072 -0.052146 0.127596 -0.0824347 
-0.0587658 0.119368 -0.0768031 -0.0630126 0.111099 -0.0713049 -0.0672036 0.102845 -0.0658172 
-0.0687106 0.0953455 -0.060828 -0.0702177 0.0878458 -0.0558387 -0.00923367 0.118012 0.0273339 
-0.0096684 0.115434 0.0211862 -0.00912103 0.113194 0.0147312 -0.00830058 0.111189 0.00812098 
-0.00686113 0.109716 0.00115905 -0.00528761 0.108563 -0.00596641 -0.00337896 0.108209 -0.0135006 
-0.00139616 0.108258 -0.021196 0.000791955 0.109426 -0.0293376 0.00304766 0.111051 -0.037617 
0.00551176 0.114086 -0.0463209 0.00803465 0.117558 -0.0550916 0.0107606 0.122544 -0.064093 
0.0134613 0.127839 -0.0730174 0.0160634 0.134342 -0.0816411 0.0184388 0.140923 -0.0899966 
0.0198069 0.147855 -0.0971604 0.0207044 0.154607 -0.103913 0.0191897 0.160437 -0.108561 
0.017099 0.165887 -0.112777 0.0115523 0.169063 -0.114403 0.00556905 0.171771 -0.11567 
-0.003542 0.171127 -0.114363 -0.0128059 0.170063 -0.112805 -0.0234144 0.16531 -0.109039 
-0.0339439 0.160295 -0.105136 -0.043584 0.152341 -0.0996889 -0.0530656 0.144294 -0.0941953 
-0.0601184 0.134816 -0.0879963 -0.06705 0.125339 -0.0818 -0.0711326 0.115923 -0.0756644 
-0.0751589 0.106528 -0.0695408 -0.0764827 0.0981538 -0.0639857 -0.0778064 0.08978 -0.0584306 
-0.0117594 0.114432 0.0303809 -0.0119605 0.112018 0.0236099 -0.011094 0.109927 0.016652 
-0.0099077 0.108062 0.00959211 -0.00799635 0.10671 0.00230124 -0.00589647 0.10567 -0.00511671 
-0.00332531 0.105408 -0.0128523 -0.000627279 0.105548 -0.0207307 0.00242205 0.106801 -0.0290047 
0.00557183 0.108525 -0.037415 0.00903133 0.111698 -0.0462452 0.0125409 0.115347 -0.0551625 
0.0162235 0.120642 -0.0643806 0.0198157 0.126319 -0.0735751 0.0230558 0.13349 -0.0826779 
0.0259529 0.14084 -0.0915984 0.0273256 0.148988 -0.0997093 0.0280857 0.15704 -0.107488 
0.0257056 0.164596 -0.113562 0.022621 0.171774 -0.119216 0.0153096 0.176683 -0.122343 
0.00749268 0.181027 -0.125042 -0.00394704 0.181323 -0.124667 -0.0155264 0.181072 -0.123944 
-0.0283346 0.176013 -0.120165 -0.0409987 0.170616 -0.116183 -0.0520418 0.161413 -0.109928 
-0.0628646 0.152101 -0.103606 -0.0703098 0.141118 -0.0962605 -0.0776024 0.130148 -0.08892 
-0.0813106 0.119479 -0.081689 -0.0849635 0.108839 -0.0744745 -0.0859592 0.0996202 -0.0680529 
-0.086955 0.0904018 -0.0616313 -0.0142519 0.110458 0.033431 -0.0142183 0.108226 0.0260383 
-0.0130317 0.106295 0.018577 -0.0114785 0.104578 0.0110654 -0.00909426 0.103346 0.00343975 
-0.00646674 0.102415 -0.00427833 -0.0032309 0.102234 -0.0122275 0.000185717 0.10245 -0.0203034 
0.00410291 0.103765 -0.0287303 0.00815583 0.105562 -0.0372954 0.0126272 0.108841 -0.0462865 
0.0171439 0.112635 -0.0553899 0.0218167 0.118209 -0.064881 0.0263385 0.124243 -0.074407 
0.0302712 0.13207 -0.0840694 0.0337457 0.140186 -0.0936374 0.0351838 0.149579 -0.102786 
0.0358612 0.158966 -0.111679 0.0326399 0.168324 -0.119259 0.0285744 0.177307 -0.126423 
0.019444 0.184047 -0.131099 0.0097302 0.190122 -0.13527 -0.00416386 0.191427 -0.135828 
-0.0181853 0.192051 -0.135936 -0.0333279 0.18669 -0.132087 -0.0482569 0.18091 -0.127967 
-0.0607833 0.170415 -0.120809 -0.0730234 0.159796 -0.113564 -0.0808709 0.147268 -0.104975 
-0.0885329 0.134764 -0.0963939 -0.0918317 0.122823 -0.0879911 -0.0950764 0.110921 -0.07961 
-0.0957199 0.100863 -0.0722718 -0.0963634 0.0908048 -0.0649336 -0.0163142 0.104451 0.0360848 
-0.0161016 0.102498 0.0281641 -0.0146606 0.100776 0.0202605 -0.0128082 0.0992316 0.0123398 
-0.0100231 0.0980886 0.00438006 -0.00693689 0.0972103 -0.00365532 -0.00309793 0.0969937 -0.0118798 
0.000987415 0.0971484 -0.0202331 0.00575502 0.098331 -0.0289434 0.0107186 0.0999903 -0.0378161 
0.0162867 0.10312 -0.0471895 0.0219353 0.106798 -0.0567291 0.0278623 0.112375 -0.0668431 
0.0336232 0.118501 -0.077084 0.0387367 0.126767 -0.0878202 0.0432975 0.13546 -0.0985824 
0.0454022 0.146046 -0.109461 0.0465569 0.156763 -0.12018 0.0428431 0.168148 -0.130087 
0.0380464 0.179197 -0.139573 0.0267525 0.188222 -0.146534 0.0147112 0.196466 -0.152853 
-0.00268568 0.199109 -0.154564 -0.0202067 0.200896 -0.155645 -0.0388192 0.195157 -0.151173 
-0.0571026 0.188903 -0.146325 -0.0716824 0.176859 -0.137246 -0.0858701 0.164685 -0.128063 
-0.0940439 0.150526 -0.117263 -0.101986 0.136411 -0.106485 -0.10449 0.123351 -0.0962465 
-0.106944 0.110341 -0.0860405 -0.107016 0.0997121 -0.0774093 -0.107088 0.0890833 -0.068778 
-0.0182925 0.0980473 0.0386612 -0.0179118 0.0963928 0.0302309 -0.0162293 0.0948899 0.021897 
-0.0140909 0.0935223 0.0135754 -0.0109189 0.0924612 0.00528169 -0.00738751 0.0916249 -0.00307433 
-0.00295744 0.0913504 -0.0115861 0.00178691 0.0914172 -0.0202326 0.00740151 0.0924288 -0.0292516 
0.0132773 0.09391 -0.0384617 0.0199585 0.0968394 -0.0482606 0.0267635 0.100352 -0.0582854 
0.0339962 0.105879 -0.0690904 0.0410567 0.112045 -0.080121 0.047446 0.120706 -0.0920314 
0.0531924 0.129939 -0.104094 0.0560811 0.141708 -0.116837 0.0578225 0.153753 -0.129522 
0.0536841 0.167211 -0.141917 0.0482049 0.180375 -0.153882 0.0346803 0.191775 -0.163273 
0.0202276 0.202273 -0.171871 -0.000876765 0.206318 -0.174778 -0.0221036 0.209325 -0.176859 
-0.0444078 0.203193 -0.171657 -0.0662581 0.196448 -0.165966 -0.0830024 0.182804 -0.154768 
-0.0992412 0.169027 -0.143447 -0.107726 0.153219 -0.130247 -0.115932 0.137479 -0.117088 
-0.117566 0.123329 -0.104883 -0.119155 0.109241 -0.0927236 -0.118613 0.0980941 -0.0827259 
-0.11807 0.0869471 -0.0727283 -0.0196648 0.0902359 0.0404117 -0.0192389 0.0889252 0.0316503 
-0.0174587 0.0876433 0.0230093 -0.0151816 0.086431 0.014385 -0.0117787 0.0853767 0.00579861 
-0.00795515 0.0844825 -0.00285795 -0.00308037 0.0839884 -0.0116897 0.00218917 0.0837797 -0.0206796 
0.00855183 0.0843616 -0.0301075 0.015269 0.0853793 -0.0397723 0.0230792 0.0877404 -0.0501675 
0.0311042 0.0906906 -0.0608694 0.039871 0.0956758 -0.0726303 0.0485212 0.101366 -0.0847475 
0.0567172 0.109807 -0.0982544 0.064226 0.118952 -0.112094 0.0686813 0.131225 -0.127415 
0.0717674 0.143941 -0.14285 0.0678364 0.158924 -0.158876 0.0621861 0.173706 -0.174492 
0.0462197 0.18728 -0.187654 0.0290189 0.199867 -0.199779 0.0029715 0.205374 -0.204474 
-0.0232076 0.209666 -0.207996 -0.0505463 0.203252 -0.201207 -0.0772352 0.196146 -0.193754 
-0.0966128 0.181238 -0.178833 -0.115322 0.166215 -0.16379 -0.123776 0.149425 -0.146874 
-0.131895 0.13273 -0.130039 -0.132112 0.118267 -0.115125 -0.132296 0.103876 -0.100277 
-0.130886 0.0928837 -0.0885748 -0.129477 0.0818914 -0.0768728 -0.0209007 0.0821078 0.0419764 
-0.0204574 0.0811511 0.032924 -0.0186116 0.0800905 0.0240037 -0.0162292 0.0790287 0.0150989 
-0.0126302 0.0779644 0.00622895 -0.00854912 0.0769898 -0.0027236 -0.00326257 0.0762396 -0.0118826 
0.00250205 0.0757133 -0.0212274 0.0095905 0.0758074 -0.0310866 0.0171331 0.0762972 -0.0412325 
0.0260759 0.0780073 -0.0522625 0.0353351 0.0803062 -0.0636845 0.0456875 0.0846393 -0.0764609 
0.0559928 0.0897373 -0.0897316 0.0661147 0.097819 -0.10493 0.0755159 0.106735 -0.120654 
0.0817138 0.11936 -0.138713 0.0863151 0.132599 -0.157075 0.0827337 0.148983 -0.17699 
0.0770274 0.16527 -0.196521 0.0585717 0.180975 -0.213755 0.038547 0.195612 -0.229688 
0.00727862 0.202596 -0.236302 -0.0241333 0.208187 -0.241367 -0.0568087 0.201517 -0.232797 
-0.0886221 0.194078 -0.223375 -0.110739 0.177983 -0.204371 -0.132012 0.161794 -0.185249 
-0.140359 0.144171 -0.164319 -0.148311 0.126672 -0.143518 -0.146988 0.112071 -0.125728 
-0.145646 0.0975509 -0.108026 -0.143313 0.0868649 -0.0945434 -0.14098 0.0761789 -0.0810611 
-0.0215206 0.0734001 0.0424985 -0.0212294 0.0727577 0.0333674 -0.0195191 0.0718558 0.0243161 
-0.0172405 0.0708659 0.0152521 -0.0136737 0.0696766 0.00615898 -0.00956566 0.0684851 -0.00304988 
-0.00410488 0.0672883 -0.0125481 0.0019225 0.0662253 -0.0222737 0.00951886 0.0655333 -0.0326288 
0.0176865 0.0651588 -0.0433279 0.0276157 0.0657636 -0.055087 0.037998 0.0669042 -0.067326 
0.0499454 0.0698957 -0.0812227 0.0619708 0.0736393 -0.0957581 0.0743001 0.080316 -0.112785 
0.0859404 0.0878696 -0.130563 0.0945191 0.0993209 -0.151678 0.1013 0.11149 -0.173367 
0.0988684 0.127336 -0.197996 0.0938297 0.14321 -0.222349 0.0731501 0.15925 -0.245047 
0.0504495 0.174273 -0.266106 0.0132648 0.182011 -0.275413 -0.0240869 0.188337 -0.282609 
-0.0629096 0.18225 -0.271221 -0.100592 0.175406 -0.25874 -0.125449 0.160058 -0.233963 
-0.149258 0.144647 -0.209112 -0.156995 0.12827 -0.183138 -0.164285 0.112025 -0.157365 
-0.161049 0.0989059 -0.136329 -0.157811 0.0858647 -0.115411 -0.154447 0.0765561 -0.100085 
-0.151083 0.0672474 -0.0847598 -0.0219826 0.0645438 0.0427533 -0.021887 0.0642054 0.0335979 
-0.0203637 0.0634462 0.0244536 -0.0182426 0.0625081 0.0152615 -0.0147663 0.0611643 0.00596071 
-0.0106906 0.0597209 -0.00349427 -0.00511645 0.0580286 -0.0133347 0.00111412 0.0563728 -0.0234478 
0.00916253 0.0548182 -0.0343155 0.0179039 0.0534932 -0.045586 0.028782 0.0528762 -0.0580986 
0.0402588 0.0527284 -0.0711794 0.0538038 0.0542016 -0.0862232 0.0675658 0.0563953 -0.102052 
0.0821746 0.0613989 -0.120942 0.0961431 0.0672993 -0.140817 0.107266 0.0771856 -0.165071 
0.116397 0.0878761 -0.190189 0.11532 0.102688 -0.219744 0.111135 0.117657 -0.24915 
0.0882994 0.133572 -0.27767 0.0629607 0.148554 -0.304192 0.0196816 0.156859 -0.316392 
-0.0237913 0.163777 -0.325869 -0.0689692 0.158487 -0.311397 -0.112712 0.152477 -0.295578 
-0.14031 0.138372 -0.264594 -0.166646 0.124237 -0.233591 -0.173645 0.109638 -0.202308 
-0.180145 0.0951762 -0.171306 -0.1749 0.0839535 -0.146931 -0.169672 0.0728037 -0.122703 
-0.16525 0.0651472 -0.105518 -0.160827 0.0574906 -0.0883329 -0.0220147 0.0559358 0.0420563 
-0.0222929 0.0557913 0.0330463 -0.0211771 0.0550681 0.0239281 -0.0194498 0.0540698 0.0147042 
-0.0163368 0.052448 0.00524099 -0.0125789 0.0506152 -0.00443266 -0.00720924 0.0482546 -0.0146323 
-0.00110203 0.0458084 -0.0251594 0.00704746 0.0431253 -0.0365933 0.0160079 0.0405461 -0.0484851 
0.0274688 0.0382874 -0.0617888 0.0396756 0.0363752 -0.075724 0.0544588 0.0356601 -0.0918408 
0.0696083 0.0355476 -0.108837 0.0861863 0.0377854 -0.129265 0.102206 0.0408107 -0.150844 
0.115747 0.0473362 -0.177537 0.127178 0.0546015 -0.20534 0.127792 0.0656585 -0.238834 
0.124889 0.0769489 -0.272332 0.100882 0.0896395 -0.305862 0.0739393 0.101679 -0.33709 
0.0259587 0.109049 -0.351825 -0.0222504 0.115369 -0.363255 -0.0724702 0.112457 -0.345603 
-0.121005 0.108999 -0.326392 -0.150581 0.0994069 -0.289634 -0.178728 0.0897937 -0.252934 
-0.184971 0.0798631 -0.217124 -0.190682 0.0700334 -0.181671 -0.183891 0.0625745 -0.154636 
-0.177132 0.055167 -0.127774 -0.171945 0.0502211 -0.109176 -0.166758 0.0452752 -0.0905779 
-0.0219223 0.0473997 0.0410838 -0.022626 0.0474172 0.0322684 -0.0219813 0.0466991 0.0232106 
-0.0207164 0.0456082 0.013983 -0.0180456 0.0436727 0.00437034 -0.0146883 0.0414105 -0.00551407 
-0.00961502 0.0383316 -0.0160778 -0.0037257 0.0350379 -0.0270267 0.00442327 0.0311493 -0.0390422 
0.0135001 0.027228 -0.0515696 0.0254379 0.0232061 -0.0656754 0.0382691 0.0193918 -0.0804686 
0.0541866 0.0162943 -0.097637 0.0706224 0.0136566 -0.115765 0.0890798 0.0128123 -0.137636 
0.107071 0.0126088 -0.160804 0.122993 0.0152537 -0.189736 0.136708 0.0185304 -0.220008 
0.139111 0.025045 -0.257155 0.137615 0.0318532 -0.294467 0.112721 0.0404236 -0.33277 
0.0844743 0.0486791 -0.368486 0.0321955 0.0546787 -0.385654 -0.0203489 0.0600582 -0.398941 
-0.0752305 0.0599816 -0.378081 -0.12819 0.0595738 -0.355462 -0.159523 0.0554403 -0.313056 
-0.189274 0.0512888 -0.27079 -0.194756 0.0468633 -0.230679 -0.199679 0.0424896 -0.191002 
-0.191475 0.0393351 -0.161504 -0.183318 0.0362057 -0.132202 -0.177451 0.0342769 -0.11232 
-0.171585 0.0323481 -0.0924385 -0.0216875 0.0397396 0.0394647 -0.0229692 0.0397976 0.030923 
-0.0229979 0.038987 0.0219797 -0.0224214 0.0377122 0.0127871 -0.0204735 0.0353854 0.0030293 
-0.0178212 0.0326136 -0.00707684 -0.0134083 0.0287296 -0.0180537 -0.00812292 0.0244889 -0.0294834 
-0.000421752 0.0192605 -0.0421669 0.0083034 0.0138416 -0.0554093 0.0201859 0.00783545 -0.0703751 
0.0330837 0.00187099 -0.0860413 0.0494894 -0.00394951 -0.104127 0.066528 -0.00948571 -0.123148 
0.0860355 -0.0139132 -0.145815 0.105142 -0.0178936 -0.169735 0.122466 -0.0198876 -0.199223 
0.137562 -0.0214232 -0.230022 0.141245 -0.0206095 -0.267532 0.140924 -0.0194769 -0.305185 
0.116581 -0.0164305 -0.343698 0.088768 -0.0132751 -0.379555 0.0360871 -0.00933774 -0.396383 
-0.0168983 -0.00543594 -0.409236 -0.0725635 -0.00184695 -0.387116 -0.126282 0.00168563 -0.363212 
-0.1581 0.00458344 -0.319247 -0.188313 0.00744772 -0.275445 -0.193923 0.00979754 -0.234146 
-0.19897 0.0121288 -0.193298 -0.190781 0.0140249 -0.163064 -0.182639 0.0159123 -0.133033 
-0.176779 0.0173854 -0.112736 -0.170919 0.0188586 -0.0924378 -0.0214065 0.0323637 0.037636 
-0.0233157 0.0324227 0.0293936 -0.0240832 0.031488 0.0205823 -0.0242686 0.0299997 0.0114373 
-0.0231346 0.0272563 0.0015357 -0.0212861 0.023949 -0.00879572 -0.0176515 0.0192317 -0.0202017 
-0.0130953 0.0140118 -0.0321313 -0.00598704 0.0074 -0.0455107 0.00223461 0.000433025 -0.0594938 
0.0138892 -0.00762907 -0.0753385 0.0266728 -0.015824 -0.0918824 0.043357 -0.0244781 -0.110842 
0.0607768 -0.0330339 -0.130678 0.0810655 -0.0412069 -0.15393 0.101009 -0.0491422 -0.178331 
0.119417 -0.056021 -0.207832 0.135603 -0.062636 -0.238526 0.1404 -0.067899 -0.275332 
0.14118 -0.0728291 -0.3122 0.117853 -0.0757619 -0.349442 0.0910374 -0.0781335 -0.384032 
0.0392182 -0.0764828 -0.39962 -0.0129452 -0.0742327 -0.411296 -0.0681363 -0.066709 -0.388547 
-0.121425 -0.0589473 -0.364047 -0.153314 -0.0485081 -0.31985 -0.18362 -0.0381241 -0.275819 
-0.189647 -0.0285869 -0.23434 -0.195113 -0.0191456 -0.193312 -0.187403 -0.011957 -0.162903 
-0.179735 -0.00481318 -0.132699 -0.174104 0.000186706 -0.112266 -0.168472 0.00518662 -0.0918333 
-0.0212168 0.0262062 0.0354973 -0.0238596 0.0261975 0.0275487 -0.0255207 0.0251073 0.0188611 