# vtk DataFile Version 3.0
vtk output
ASCII
DATASET RECTILINEAR_GRID
FIELD FieldData 2
base_index 1 3 int
68 0 34 
avtOriginalBounds 1 6 double
3.33333 10 -10 -3.33333 -3.33333 3.33333 
DIMENSIONS 34 34 34
X_COORDINATES 34 float
3.33333 3.53535 3.73737 3.93939 4.14141 4.34343 4.54545 4.74747 4.94949 
5.15152 5.35354 5.55556 5.75758 5.9596 6.16162 6.36364 6.56566 6.76768 
6.9697 7.17172 7.37374 7.57576 7.77778 7.9798 8.18182 8.38384 8.58586 
8.78788 8.9899 9.19192 9.39394 9.59596 9.79798 10 
Y_COORDINATES 34 float
-10 -9.79798 -9.59596 -9.39394 -9.19192 -8.9899 -8.78788 -8.58586 -8.38384 
-8.18182 -7.9798 -7.77778 -7.57576 -7.37374 -7.17172 -6.9697 -6.76768 -6.56566 
-6.36364 -6.16162 -5.9596 -5.75758 -5.55556 -5.35354 -5.15152 -4.9495 -4.74747 
-4.54545 -4.34343 -4.14141 -3.93939 -3.73737 -3.53535 -3.33333 
Z_COORDINATES 34 float
-3.33333 -3.13131 -2.92929 -2.72727 -2.52525 -2.32323 -2.12121 -1.91919 -1.71717 
-1.51515 -1.31313 -1.11111 -0.909091 -0.707071 -0.505051 -0.30303 -0.10101 0.10101 
0.30303 0.50505 0.70707 0.909091 1.11111 1.31313 1.51515 1.71717 1.91919 
2.12121 2.32323 2.52525 2.72727 2.92929 3.13131 3.33333 
POINT_DATA 39304
FIELD FieldData 1
grad 3 39304 float
0.0248183 0.179039 0.206898 -0.0151702 0.173433 0.197793 -0.047834 0.152651 0.180341 
-0.0740835 0.130272 0.162117 -0.0857933 0.104271 0.142145 -0.0929358 0.0800152 0.123538 
-0.0886595 0.0601252 0.108342 -0.0825802 0.0425075 0.0949223 -0.0715078 0.0311827 0.0864211 
-0.0603745 0.021655 0.0793761 -0.0490531 0.0176687 0.0768206 -0.0384101 0.0147964 0.0752427 
-0.0301106 0.0157726 0.0770419 -0.022591 0.0172464 0.079333 -0.0181132 0.0206607 0.0835424 
-0.0141637 0.0241887 0.0877879 -0.012562 0.0282224 0.0921945 -0.0111596 0.0322681 0.0962652 
-0.010778 0.0363761 0.0986152 -0.0104261 0.04056 0.100436 -0.0102529 0.0451993 0.099081 
-0.0101403 0.0499332 0.0972552 -0.0104621 0.0553449 0.0920546 -0.0109178 0.0607484 0.0866167 
-0.0125527 0.0660788 0.0790921 -0.0143109 0.0712947 0.0715446 -0.0174571 0.075221 0.0637419 
-0.0206574 0.079015 0.0560067 -0.0246899 0.0807797 0.0493077 -0.0287223 0.0824583 0.042673 
-0.0327526 0.0821159 0.0375511 -0.0367396 0.0817416 0.0324592 -0.0386481 0.0798404 0.0288104 
-0.0405566 0.0779391 0.0251616 0.0230983 0.15838 0.25123 -0.0269281 0.152993 0.238233 
-0.0664599 0.133065 0.213141 -0.0974074 0.111699 0.187371 -0.108897 0.0870699 0.160066 
-0.114844 0.0641728 0.134895 -0.106935 0.0456052 0.11506 -0.0971435 0.0292907 0.0976036 
-0.0821354 0.0192162 0.0867375 -0.0672846 0.0109721 0.0777011 -0.052919 0.00837143 0.0743067 
-0.039504 0.00691391 0.0721143 -0.029373 0.00940544 0.0740746 -0.0202414 0.0123793 0.0766601 
-0.0150069 0.017234 0.0816838 -0.0104082 0.0221552 0.0868144 -0.00863487 0.0273723 0.0924201 
-0.0070643 0.0325503 0.097689 -0.0065328 0.037528 0.101232 -0.00600639 0.0425428 0.104157 
-0.00551052 0.0477798 0.103384 -0.00509383 0.0530846 0.102022 -0.00524454 0.0588752 0.0964501 
-0.0055842 0.0646354 0.090582 -0.00758668 0.0701285 0.0821096 -0.00975457 0.0754888 0.0736179 
-0.0137831 0.0793546 0.0649085 -0.0178766 0.0830765 0.0562877 -0.0229655 0.0845917 0.0490255 
-0.0280482 0.0860163 0.0418415 -0.0329858 0.0853108 0.0364966 -0.0378694 0.0845729 0.0311863 
-0.0401636 0.0822828 0.0275367 -0.0424578 0.0799927 0.0238871 0.0213784 0.137721 0.295562 
-0.038686 0.132553 0.278674 -0.0850857 0.113479 0.24594 -0.120731 0.0931253 0.212624 
-0.132 0.0698692 0.177986 -0.136752 0.0483304 0.146252 -0.125211 0.0310851 0.121777 
-0.111707 0.016074 0.100285 -0.0927629 0.00724986 0.0870538 -0.0741947 0.000289199 0.0760262 
-0.0567848 -0.000925778 0.0717927 -0.0405979 -0.00096853 0.0689859 -0.0286355 0.00303827 0.0711073 
-0.0178917 0.00751209 0.0739872 -0.0119006 0.0138073 0.0798253 -0.00665273 0.0201218 0.0858409 
-0.00470773 0.0265223 0.0926458 -0.00296903 0.0328325 0.0991127 -0.00228764 0.03868 0.103848 
-0.00158666 0.0445256 0.107879 -0.000768149 0.0503603 0.107686 -4.73767e-05 0.056236 0.106789 
-2.70481e-05 0.0624054 0.100846 -0.000250641 0.0685225 0.0945473 -0.00262071 0.0741782 0.0851272 
-0.00519822 0.0796828 0.0756911 -0.0101092 0.0834881 0.0660751 -0.0150958 0.0871379 0.0565686 
-0.021241 0.0884038 0.0487432 -0.0273741 0.0895743 0.0410099 -0.0332189 0.0885056 0.0354421 
-0.0389991 0.0874041 0.0299134 -0.0416791 0.0847251 0.026263 -0.0443591 0.0820462 0.0226126 
0.0199691 0.0776774 0.330303 -0.0484616 0.0740252 0.30911 -0.100298 0.0599716 0.268695 
-0.139508 0.0448236 0.227987 -0.150097 0.0271949 0.186613 -0.15336 0.0108382 0.148885 
-0.138307 -0.00233839 0.120273 -0.121162 -0.0135054 0.0951976 -0.09822 -0.0191072 0.0799139 
-0.075824 -0.022784 0.0672162 -0.0551104 -0.0205255 0.0624927 -0.0359382 -0.0170197 0.0594355 
-0.0220907 -0.009205 0.062135 -0.00975842 -0.000975318 0.065717 -0.00333578 0.0088728 0.0727402 
0.00219326 0.018611 0.0799982 0.00375084 0.0278607 0.0882996 0.00509616 0.0368847 0.0962593 
0.00535364 0.0447525 0.102469 0.00566867 0.0525028 0.107877 0.00632899 0.0595485 0.108478 
0.00687971 0.0665462 0.108238 0.0066449 0.0732008 0.101977 0.00611076 0.0797433 0.0952988 
0.00294266 0.0852989 0.0849549 -0.000472744 0.0906674 0.0746074 -0.00666979 0.0939311 0.06422 
-0.0129465 0.0970201 0.0539701 -0.0204446 0.0974301 0.0458282 -0.0279179 0.0977386 0.0377942 
-0.0348065 0.0956614 0.0322993 -0.0416176 0.0935522 0.0268477 -0.0447085 0.0898989 0.0234743 
-0.0477995 0.0862456 0.0201008 0.0185662 0.0168134 0.364844 -0.0581958 0.014704 0.339337 
-0.115439 0.0057574 0.291241 -0.15819 -0.00409716 0.243145 -0.16809 -0.0160098 0.195045 
-0.169858 -0.0271049 0.151335 -0.151295 -0.0361556 0.118598 -0.13051 -0.0434255 0.0899486 
-0.103569 -0.0457639 0.0726186 -0.0773433 -0.0461152 0.0582577 -0.0533206 -0.0403398 0.0530513 
-0.0311587 -0.033241 0.0497514 -0.0154249 -0.0215706 0.0530378 -0.00150468 -0.0095381 0.0573302 
0.00534274 0.00390692 0.0655464 0.0111453 0.017111 0.0740542 0.0123038 0.0292446 0.0838582 
0.013244 0.0410154 0.0933169 0.0130656 0.0509275 0.101006 0.012983 0.0606049 0.107797 
0.0134752 0.0688743 0.109196 0.0138459 0.0770056 0.109618 0.0133471 0.0841475 0.10304 
0.0124936 0.0911168 0.0959833 0.00851844 0.0965668 0.0847161 0.00425624 0.101793 0.073458 
-0.00323528 0.104505 0.0623021 -0.0108104 0.107023 0.0513116 -0.0196676 0.106565 0.0428583 
-0.0284871 0.105999 0.0345289 -0.0364224 0.1029 0.029113 -0.0442671 0.0997694 0.0237446 
-0.0477695 0.0951295 0.0206539 -0.051272 0.0904896 0.0175632 0.0193358 -0.0537821 0.360121 
-0.0584848 -0.0539297 0.332432 -0.116876 -0.0556556 0.282943 -0.160638 -0.0582085 0.233329 
-0.17124 -0.0626357 0.183431 -0.173144 -0.0670362 0.137836 -0.153307 -0.0713701 0.102996 
-0.130696 -0.074219 0.0724638 -0.1004 -0.0729553 0.0538622 -0.0707542 -0.069488 0.0386239 
-0.0431084 -0.0592256 0.0337563 -0.0177079 -0.0474891 0.0310664 -6.3777e-05 -0.03066 0.0358991 
0.0153384 -0.0135905 0.0417946 0.0219968 0.0044165 0.0518346 0.0273987 0.021963 0.062121 
0.0272163 0.0374632 0.0735034 0.0267952 0.0524032 0.084477 0.0251505 0.0644731 0.0933554 
0.0236409 0.0761376 0.101252 0.0229422 0.0853699 0.103253 0.0221306 0.0943289 0.104192 
0.0205099 0.101329 0.0975121 0.018508 0.10808 0.090319 0.0131509 0.112641 0.0786112 
0.00748638 0.116948 0.0669285 -0.00163616 0.11838 0.0555273 -0.0108355 0.119605 0.0443195 
-0.0212125 0.117655 0.0360781 -0.0315317 0.115595 0.0279759 -0.0404932 0.110978 0.0231467 
-0.0493504 0.106334 0.0183674 -0.0532058 0.100381 0.0159833 -0.0570613 0.0944284 0.0135992 
0.0201978 -0.124791 0.353727 -0.0583719 -0.122959 0.323948 -0.11773 -0.117375 0.273332 
-0.162396 -0.11254 0.222451 -0.173757 -0.109407 0.170964 -0.175868 -0.107052 0.123658 
-0.154852 -0.106644 0.086801 -0.130491 -0.105049 0.0544585 -0.0968691 -0.100169 0.0346181 
-0.0638202 -0.0928623 0.0185359 -0.0325379 -0.0780719 0.0140422 -0.00388823 -0.0616533 0.0119984 
0.0156673 -0.0396099 0.0184184 0.0325469 -0.0174509 0.0259549 0.0389901 0.00515906 0.0378455 
0.0439627 0.0270852 0.0499331 0.0423994 0.0459725 0.0628971 0.0405763 0.0640998 0.0753861 
0.0374213 0.0783323 0.0854414 0.0344409 0.0919864 0.0944311 0.0325079 0.102171 0.0970277 
0.0304713 0.111944 0.0984771 0.0276923 0.118775 0.091704 0.0245068 0.12528 0.0843845 
0.0177432 0.12892 0.0722568 0.0106527 0.132273 0.0601701 -0.000115136 0.132395 0.0485459 
-0.0109526 0.132297 0.0371431 -0.0228562 0.128827 0.0291358 -0.0346817 0.125248 0.021283 
-0.0446685 0.119092 0.0170621 -0.0545372 0.112913 0.0128934 -0.0587431 0.105634 0.011234 
-0.0629491 0.0983543 0.00957455 0.0210847 -0.159861 0.316572 -0.0522816 -0.157893 0.286361 
-0.109109 -0.149319 0.23895 -0.152573 -0.141301 0.19077 -0.165746 -0.134543 0.140847 
-0.169246 -0.128953 0.0942722 -0.148565 -0.126285 0.0560651 -0.123454 -0.12241 0.0224176 
-0.0860753 -0.115193 0.00139733 -0.0490067 -0.105045 -0.0151891 -0.0128954 -0.0858624 -0.0181046 
0.019939 -0.0648606 -0.018163 0.0414526 -0.0375747 -0.00835148 0.0596193 -0.0104241 0.00248785 
0.0647329 0.0161991 0.0173358 0.068115 0.0418313 0.0321376 0.0638016 0.0630594 0.0467349 
0.0592221 0.0833104 0.0606821 0.0532793 0.0985539 0.0712976 0.0475632 0.113061 0.0807847 
0.043208 0.12315 0.0835017 0.0387914 0.132718 0.0850725 0.0339349 0.138543 0.0784285 
0.0286883 0.14399 0.0712416 0.0200091 0.146105 0.0592763 0.0110062 0.147914 0.0473676 
-0.0016382 0.146293 0.0360952 -0.0143342 0.144446 0.0250752 -0.0278216 0.139126 0.0179261 
-0.0412014 0.133701 0.0109481 -0.0520532 0.125796 0.00799193 -0.0627737 0.117876 0.00508771 
-0.0671881 0.109221 0.00467627 -0.0716025 0.100566 0.00426482 0.0219733 -0.192587 0.277411 
-0.0458015 -0.190603 0.246876 -0.0998702 -0.179322 0.202951 -0.141995 -0.168394 0.157732 
-0.157047 -0.158268 0.109579 -0.162014 -0.149673 0.0638948 -0.141768 -0.144906 0.024381 
-0.115972 -0.138892 -0.0105386 -0.074808 -0.129421 -0.0327348 -0.0336795 -0.116498 -0.0498034 
0.0073388 -0.0929318 -0.051062 0.0444188 -0.0673533 -0.0490477 0.0678936 -0.0348231 -0.0357271 
0.087335 -0.00268728 -0.0214765 0.0910463 0.0279107 -0.00359907 0.0927621 0.0572049 0.0139765 
0.0856092 0.0807056 0.0302105 0.0781851 0.103011 0.0456121 0.0693711 0.11919 0.0567476 
0.060837 0.134476 0.0666932 0.0539821 0.144403 0.0694997 0.0471102 0.153697 0.0711665 
0.0401162 0.158463 0.0646662 0.0327513 0.162799 0.0576286 0.0221232 0.163348 0.0458637 
0.0111761 0.163575 0.0341708 -0.00335979 0.160184 0.0232878 -0.0179287 0.15656 0.0126883 
-0.0330035 0.149368 0.00643813 -0.0479408 0.142075 0.000375721 -0.0596473 0.132407 -0.00127288 
-0.071209 0.122732 -0.00287006 -0.0758226 0.1127 -0.00199938 -0.0804363 0.102667 -0.00112869 
0.0200534 -0.181249 0.237299 -0.0411411 -0.180121 0.206395 -0.091595 -0.169411 0.164756 
-0.131644 -0.158645 0.121252 -0.148107 -0.147752 0.0735197 -0.154075 -0.138192 0.0272203 
-0.133805 -0.131966 -0.0154955 -0.106542 -0.124383 -0.0534189 -0.0599145 -0.113042 -0.0780704 
-0.0130725 -0.0980429 -0.096259 0.0344325 -0.0717619 -0.0945201 0.0768887 -0.0435766 -0.0888823 
0.101904 -0.00881261 -0.069776 0.12195 0.0252278 -0.0500612 0.12262 0.0564461 -0.0279729 
0.121065 0.0861165 -0.00663205 0.109622 0.108908 0.0113872 0.0979774 0.130373 0.0283226 
0.0853053 0.145043 0.039704 0.0730112 0.158752 0.0498386 0.062986 0.166694 0.0524919 
0.0530225 0.173976 0.0540341 0.0435025 0.176521 0.0476129 0.0336548 0.178635 0.0406649 
0.0209233 0.17696 0.0290808 0.00788539 0.174975 0.0175909 -0.00859761 0.169508 0.00716018 
-0.0250878 0.163821 -0.00293555 -0.0416871 0.154773 -0.00789447 -0.0581095 0.145639 -0.0126416 
-0.0703739 0.1345 -0.0124104 -0.0824818 0.123365 -0.0121316 -0.0870802 0.112386 -0.00956588 
-0.0916786 0.101407 -0.00700013 0.0178839 -0.165994 0.197103 -0.0366425 -0.165799 0.165825 
-0.0834054 -0.155953 0.126366 -0.121313 -0.145622 0.0844667 -0.139146 -0.134192 0.0370342 
-0.146074 -0.123849 -0.0100138 -0.125738 -0.11622 -0.0560999 -0.0969379 -0.10712 -0.0971812 
-0.0446988 -0.0939436 -0.124402 0.00800375 -0.0769294 -0.143767 0.0621357 -0.0480819 -0.138911 
0.110069 -0.0174649 -0.129512 0.136586 0.0192653 -0.104418 0.157179 0.0549363 -0.0790564 
0.154662 0.0864769 -0.0526522 0.149693 0.116231 -0.027458 0.13383 0.138048 -0.00764041 
0.117843 0.158416 0.0108359 0.101225 0.171359 0.0224389 0.0850877 0.183281 0.0327383 
0.0718324 0.189078 0.035217 0.0587209 0.194193 0.036615 0.0466405 0.194414 0.0302672 
0.0342775 0.194208 0.0234034 0.0194287 0.19025 0.0119984 0.00428705 0.185997 0.000710212 
-0.014148 0.178426 -0.00926248 -0.0325637 0.17065 -0.0188471 -0.0506819 0.159747 -0.0224799 
-0.068583 0.148775 -0.0258762 -0.0813789 0.136192 -0.0237144 -0.0940068 0.123623 -0.021509 
-0.0985709 0.111735 -0.0172115 -0.103135 0.0998478 -0.012914 0.0148354 -0.129424 0.167924 
-0.0332446 -0.128706 0.136559 -0.0758041 -0.118326 0.0980565 -0.110731 -0.106706 0.0566276 
-0.128357 -0.0922761 0.00856533 -0.134913 -0.0782349 -0.0400116 -0.113794 -0.0651658 -0.0898748 
-0.083087 -0.050933 -0.13453 -0.0258311 -0.0334775 -0.16476 0.0319331 -0.0132973 -0.185646 
0.0912647 0.0152843 -0.177723 0.143207 0.0448424 -0.164691 0.169624 0.0777743 -0.134012 
0.189274 0.109452 -0.103481 0.182532 0.13624 -0.0735339 0.173225 0.161253 -0.0452013 
0.152521 0.178376 -0.0240457 0.131826 0.194083 -0.00441322 0.111175 0.202536 0.00741308 
0.0911373 0.210013 0.0179048 0.0747715 0.211637 0.0203894 0.0586483 0.212628 0.021805 
0.0442639 0.209072 0.0155598 0.0296516 0.205135 0.00878831 0.0130347 0.197839 -0.00261522 
-0.00385431 0.190303 -0.0138837 -0.0238031 0.180067 -0.023632 -0.0437005 0.169687 -0.0329307 
-0.0628072 0.1571 -0.0353332 -0.0816552 0.144483 -0.0374734 -0.0944226 0.131183 -0.033447 
-0.107016 0.117909 -0.0293831 -0.111274 0.105941 -0.0235237 -0.115532 0.0939734 -0.0176643 
0.011687 -0.0904327 0.139998 -0.0299718 -0.089025 0.108577 -0.0682696 -0.0779527 0.0708922 
-0.100121 -0.0648483 0.0298052 -0.11736 -0.0471376 -0.0189925 -0.123393 -0.0290675 -0.0691871 
-0.101409 -0.0100989 -0.122874 -0.0687535 0.00967728 -0.171149 -0.00654845 0.0316894 -0.204439 
0.0561865 0.0551664 -0.226886 0.120556 0.0831601 -0.2159 0.176341 0.111263 -0.19925 
0.202475 0.139741 -0.163031 0.221013 0.166787 -0.127387 0.209928 0.188246 -0.093984 
0.196178 0.207968 -0.0625943 0.170585 0.219975 -0.0401529 0.14514 0.230617 -0.0194081 
0.120447 0.234265 -0.00735819 0.096502 0.236995 0.00332896 0.0770393 0.234216 0.00583984 
0.0579198 0.23086 0.00729151 0.0412606 0.223363 0.00115228 0.0244293 0.215533 -0.00552603 
0.00608393 0.20478 -0.0169482 -0.0125119 0.193846 -0.0282176 -0.0339248 0.180882 -0.0377682 
-0.0552534 0.167839 -0.0468065 -0.0752882 0.153587 -0.0479897 -0.0950227 0.139348 -0.0488846 
-0.107698 0.125412 -0.0430009 -0.120194 0.111517 -0.0370864 -0.124115 0.099563 -0.0296844 
-0.128036 0.0876087 -0.0222824 0.0120906 -0.0508534 0.123232 -0.0224332 -0.0470781 0.0927442 
-0.0546948 -0.0332068 0.0565241 -0.0813125 -0.016399 0.0169306 -0.0951371 0.00706524 -0.0303098 
-0.0983641 0.0317488 -0.0791083 -0.0750967 0.0594807 -0.131801 -0.041542 0.0874177 -0.179275 
0.0205008 0.115923 -0.212293 0.0827523 0.143966 -0.23461 0.145647 0.170585 -0.223931 
0.199643 0.196131 -0.207637 0.2229 0.217965 -0.171947 0.23835 0.238205 -0.136809 
0.223355 0.252226 -0.103819 0.205676 0.264558 -0.072784 0.176066 0.269383 -0.0504357 
0.146716 0.272916 -0.0297203 0.118692 0.269824 -0.0173726 0.0915396 0.265934 -0.00633655 
0.0696205 0.257255 -0.00317048 0.0481377 0.248103 -0.00104591 0.0297826 0.235555 -0.00638534 
0.0113259 0.222742 -0.0122836 -0.00802414 0.207601 -0.0230993 -0.0275686 0.192365 -0.0337793 
-0.0493003 0.176067 -0.0429341 -0.0709043 0.159795 -0.0515701 -0.090549 0.143915 -0.0522503 
-0.109868 0.128112 -0.0526386 -0.121525 0.114095 -0.0461664 -0.133012 0.100133 -0.0396662 
-0.136292 0.0888498 -0.0318184 -0.139573 0.0775662 -0.0239705 0.0129899 -0.011192 0.108023 
-0.0142993 -0.00481498 0.0786059 -0.0402771 0.0121492 0.0439415 -0.06136 0.03297 0.00600208 
-0.0713473 0.0625329 -0.0393611 -0.0714502 0.0941906 -0.0863428 -0.0468415 0.131085 -0.137371 
-0.0125336 0.167548 -0.183425 0.0486338 0.202816 -0.215707 0.109641 0.235603 -0.237658 
0.170152 0.260738 -0.227755 0.221574 0.283573 -0.212371 0.241592 0.298458 -0.178058 
0.253679 0.311589 -0.144209 0.234834 0.317878 -0.112173 0.213296 0.322526 -0.0819685 
0.179792 0.319881 -0.0599059 0.146654 0.316019 -0.0393791 0.115397 0.305917 -0.0267232 
0.0851363 0.295146 -0.0153169 0.0608501 0.280358 -0.0114079 0.0370923 0.265208 -0.00852156 
0.017122 0.247454 -0.0129644 -0.00287722 0.229506 -0.0179867 -0.0231309 0.209847 -0.0281087 
-0.0435183 0.190183 -0.0381171 -0.065409 0.170467 -0.0468484 -0.0871271 0.150885 -0.0550622 
-0.106198 0.133384 -0.0553394 -0.124919 0.116024 -0.0553242 -0.135429 0.102003 -0.0484405 
-0.145778 0.088053 -0.0415311 -0.148376 0.0775318 -0.0333905 -0.150973 0.0670106 -0.0252498 
0.0195759 0.018578 0.101559 0.000162768 0.0277967 0.0739634 -0.018063 0.047721 0.0418091 
-0.031905 0.0719544 0.0069041 -0.03581 0.105956 -0.034236 -0.0311391 0.142498 -0.0765668 
-0.00502797 0.185391 -0.121874 0.029055 0.227612 -0.162875 0.0852139 0.267969 -0.191946 
0.140534 0.304988 -0.212415 0.19327 0.331716 -0.206362 0.2373 0.35543 -0.19548 
0.251257 0.368733 -0.167916 0.257557 0.37972 -0.140328 0.233993 0.381676 -0.112648 
0.207846 0.381477 -0.086216 0.170214 0.371697 -0.0653368 0.133172 0.360559 -0.0456459 
0.0991553 0.342452 -0.032045 0.0663222 0.323863 -0.019552 0.0405897 0.302379 -0.0137067 
0.0154628 0.280715 -0.00886622 -0.0053241 0.257767 -0.0112271 -0.0260646 0.234702 -0.0142139 
-0.0463973 0.210609 -0.0227081 -0.0667589 0.186589 -0.0311697 -0.0874454 0.163378 -0.0392643 
-0.107898 0.140407 -0.0469205 -0.124755 0.121128 -0.0478547 -0.14126 0.102059 -0.0485229 
-0.149484 0.0879404 -0.0429436 -0.157572 0.0739115 -0.0373344 -0.159126 0.0642016 -0.0302858 
-0.16068 0.0544916 -0.0232373 0.0271098 0.0466994 0.0965521 0.0156795 0.0587999 0.0709036 
0.00545052 0.081662 0.0414184 -0.000866171 0.109208 0.00977788 0.00168521 0.147371 -0.0267481 
0.0114048 0.188449 -0.0639557 0.0390453 0.236814 -0.102867 0.0727403 0.284331 -0.138207 
0.123202 0.329499 -0.163655 0.172096 0.370666 -0.182457 0.216156 0.399498 -0.180766 
0.251993 0.42469 -0.174984 0.259418 0.437306 -0.155065 0.259527 0.446977 -0.134568 
0.2311 0.445166 -0.111809 0.200217 0.440591 -0.0896407 0.158419 0.423734 -0.0700945 
0.117453 0.405338 -0.0513474 0.0807553 0.379061 -0.0366953 0.0454396 0.352498 -0.0229963 
0.0184143 0.324218 -0.0150157 -0.00793079 0.295955 -0.00802238 -0.0294011 0.267815 -0.00810382 
-0.0507494 0.239636 -0.00886174 -0.0710237 0.211124 -0.0155726 -0.0912147 0.182759 -0.0223415 
-0.11047 0.156041 -0.0297638 -0.129426 0.129667 -0.0368399 -0.143797 0.108585 -0.0386077 
-0.157816 0.0877813 -0.0401405 -0.163564 0.0735494 -0.0361517 -0.169203 0.0594264 -0.0321274 
-0.169653 0.0505359 -0.0264018 -0.170103 0.0416453 -0.0206761 0.0391556 0.062187 0.0974948 
0.0351682 0.0762992 0.073733 0.0325965 0.100437 0.0468731 0.0335477 0.129042 0.0183913 
0.042484 0.167771 -0.0137667 0.0573114 0.209378 -0.0463094 0.0868664 0.258179 -0.0798138 
0.12078 0.306532 -0.110599 0.166761 0.353647 -0.133855 0.210311 0.397566 -0.152229 
0.246361 0.431633 -0.155554 0.274034 0.46231 -0.155536 0.272771 0.481274 -0.143969 
0.264053 0.496284 -0.131225 0.226263 0.495879 -0.113885 0.186337 0.49128 -0.0962185 
0.136914 0.468039 -0.0771025 0.0890947 0.442838 -0.0582267 0.0494913 0.407598 -0.0405817 
0.0117278 0.372445 -0.0237297 -0.0149973 0.337815 -0.0116356 -0.0410146 0.303521 -0.0006012 
-0.0619601 0.271625 0.0028382 -0.0827694 0.239754 0.00543057 -0.10238 0.2081 0.000569074 
-0.121775 0.17662 -0.00451404 -0.13874 0.147109 -0.01209 -0.155319 0.118015 -0.0194265 
-0.165964 0.0953383 -0.0230912 -0.176264 0.0729974 -0.0265475 -0.178452 0.0585571 -0.0251047 
-0.180574 0.0442447 -0.0236164 -0.179492 0.0360676 -0.0199416 -0.178411 0.0278905 -0.0162667 
0.0520817 0.0752095 0.0995983 0.055432 0.0911636 0.0777115 0.0604513 0.116253 0.0534683 
0.06862 0.145476 0.0281247 0.0839274 0.184071 0.000286728 0.103874 0.225425 -0.0276806 
0.135419 0.273678 -0.055971 0.169669 0.321998 -0.082418 0.211408 0.370501 -0.10376 
0.249824 0.4169 -0.121948 0.277993 0.456813 -0.130416 0.29751 0.493757 -0.136292 
0.287136 0.520441 -0.133216 0.269078 0.54209 -0.128354 0.221047 0.5441 -0.116529 
0.171237 0.540325 -0.103412 0.113515 0.510835 -0.0845495 0.0582704 0.478918 -0.0653357 
0.0157173 0.434559 -0.044319 -0.0244873 0.390695 -0.0239341 -0.0506013 0.349804 -0.00734041 
-0.0759893 0.309589 0.00810337 -0.0961741 0.274219 0.0153058 -0.116221 0.238932 0.0214673 
-0.13505 0.204384 0.018468 -0.153526 0.170031 0.0150694 -0.168034 0.137865 0.00717863 
-0.182064 0.106185 -0.000582303 -0.188741 0.0819549 -0.00635146 -0.19508 0.0581148 -0.0119378 
-0.193499 0.0434476 -0.0132276 -0.191895 0.0289271 -0.0144608 -0.189198 0.0214427 -0.0129787 
-0.186501 0.0139583 -0.0114967 0.0673801 0.0778218 0.10504 0.0764978 0.0946344 0.0844551 
0.087473 0.119088 0.0620965 0.101371 0.147035 0.0389377 0.121896 0.182899 0.0139653 
0.146386 0.221226 -0.0111489 0.180788 0.265706 -0.0366176 0.217081 0.310814 -0.0610456 
0.258609 0.357659 -0.0825911 0.296043 0.403795 -0.102338 0.320852 0.447747 -0.116541 
0.335562 0.489733 -0.12885 0.315383 0.524924 -0.134622 0.285999 0.554224 -0.13788 
0.220715 0.560544 -0.131334 0.154185 0.559231 -0.122107 0.0821228 0.523993 -0.100965 
0.0144308 0.485959 -0.0787393 -0.030864 0.4336 -0.0509555 -0.0728951 0.382332 -0.0237438 
-0.0953451 0.337615 3.57789e-05 -0.117232 0.293953 0.0224002 -0.135085 0.257843 0.0346225 
-0.15295 0.221844 0.0453971 -0.170918 0.186815 0.0434305 -0.188382 0.151972 0.0408088 
-0.200177 0.119222 0.030816 -0.211368 0.0869972 0.0208864 -0.213305 0.0628321 0.0119251 
-0.214913 0.0390855 0.00315371 -0.208784 0.0251788 -0.00115346 -0.202685 0.0114276 -0.00538786 
-0.19804 0.00513953 -0.00613035 -0.193394 -0.00114859 -0.00687284 0.0832121 0.0780918 0.111232 
0.0977442 0.0955416 0.0918208 0.114307 0.119002 0.0711821 0.133601 0.145246 0.0499937 
0.159083 0.177797 0.0275596 0.187987 0.212472 0.00491086 0.225442 0.252453 -0.0182744 
0.264162 0.293634 -0.0412053 0.306386 0.338135 -0.0634313 0.343771 0.383392 -0.0851293 
0.366238 0.430976 -0.105199 0.376895 0.477728 -0.124064 0.346754 0.521604 -0.138764 
0.305597 0.558782 -0.150195 0.221481 0.569838 -0.148875 0.136694 0.571356 -0.143391 
0.0489316 0.530482 -0.119399 -0.0323373 0.486467 -0.0935591 -0.0803269 0.426358 -0.0582443 
-0.124046 0.36798 -0.0234646 -0.142145 0.319986 0.00810521 -0.159885 0.273432 0.0379552 
-0.175053 0.237199 0.0554803 -0.190417 0.201095 0.0711028 -0.207506 0.166128 0.0699824 
-0.223937 0.131332 0.0679332 -0.23296 0.0984632 0.0554364 -0.241249 0.0661535 0.0429456 
-0.238272 0.0424178 0.0305474 -0.234974 0.0191232 0.0183536 -0.224123 0.00619909 0.010965 
-0.213356 -0.00656278 0.00366643 -0.206687 -0.0115413 0.00069228 -0.200019 -0.0165198 -0.00228189 
0.099912 0.0726264 0.118463 0.117675 0.0899632 0.099695 0.137647 0.111396 0.0801337 
0.160314 0.134786 0.060154 0.189089 0.162612 0.0392254 0.221194 0.191983 0.0179368 
0.261629 0.225216 -0.00425162 0.303396 0.259565 -0.0268468 0.348857 0.297007 -0.050568 
0.389182 0.335622 -0.0748835 0.413676 0.377859 -0.101032 0.424018 0.419913 -0.126818 
0.385472 0.461337 -0.151356 0.332852 0.496457 -0.171763 0.225342 0.50699 -0.176067 
0.117834 0.508013 -0.174192 0.0103243 0.466767 -0.14486 -0.0876337 0.422624 -0.112923 
-0.136643 0.363627 -0.067634 -0.180174 0.30654 -0.0230261 -0.190829 0.260909 0.0174948 
-0.201571 0.216786 0.0558879 -0.212928 0.183465 0.0790318 -0.224787 0.150339 0.0996729 
-0.241071 0.11892 0.09829 -0.256532 0.0877125 0.0956806 -0.262741 0.0588786 0.0792732 
-0.26808 0.03059 0.062874 -0.260066 0.0106661 0.0466026 -0.251746 -0.0088458 0.030578 
-0.236229 -0.0186718 0.0203582 -0.220853 -0.0283489 0.0102485 -0.212225 -0.0308827 0.00542443 
-0.203598 -0.0334166 0.000600304 0.116834 0.0656902 0.12596 0.137269 0.0827218 0.107699 
0.160091 0.101862 0.0890511 0.185613 0.122104 0.0700846 0.217252 0.144842 0.0503967 
0.25225 0.168486 0.0301849 0.295645 0.194393 0.00866334 0.340619 0.221167 -0.013894 
0.389968 0.250338 -0.0393191 0.434 0.280836 -0.0664232 0.46164 0.315422 -0.0987042 
0.472625 0.350353 -0.131507 0.426073 0.38647 -0.166114 0.362069 0.416983 -0.195704 
0.229998 0.425644 -0.205733 0.0986215 0.425318 -0.207434 -0.0296718 0.385052 -0.172123 
-0.145117 0.342281 -0.133453 -0.194717 0.286668 -0.0775624 -0.237577 0.233025 -0.0225467 
-0.239996 0.191204 0.027223 -0.243008 0.150876 0.0744303 -0.250265 0.121247 0.103274 
-0.258363 0.0918881 0.128977 -0.27386 0.0649123 0.127048 -0.288368 0.038201 0.123588 
-0.291753 0.0144667 0.102909 -0.29413 -0.00874794 0.082256 -0.281046 -0.0239927 0.0619994 
-0.267674 -0.0388678 0.0420394 -0.247507 -0.0450532 0.0290527 -0.227536 -0.0511083 0.0161968 
-0.216966 -0.0509064 0.00962056 -0.206396 -0.0507045 0.00304435 0.133494 0.0581495 0.132437 
0.154128 0.0741178 0.114528 0.177468 0.0903125 0.0966283 0.203527 0.106769 0.0784978 
0.235752 0.12382 0.0598439 0.271329 0.140933 0.0405786 0.315288 0.158199 0.0197847 
0.360984 0.175361 -0.00240074 0.411494 0.192232 -0.0284397 0.456694 0.209201 -0.0567989 
0.485521 0.226472 -0.0923123 0.496295 0.243379 -0.128957 0.444701 0.259027 -0.169508 
0.373572 0.271121 -0.204574 0.226258 0.26935 -0.218243 0.0800939 0.262253 -0.222249 
-0.0609646 0.231482 -0.183309 -0.187095 0.199171 -0.140639 -0.236723 0.158966 -0.0788539 
-0.278827 0.119872 -0.0181288 -0.275784 0.0874437 0.0362396 -0.273576 0.0560274 0.0877927 
-0.277339 0.0318647 0.11917 -0.282101 0.00814629 0.14706 -0.295647 -0.0116616 0.144269 
-0.308121 -0.0310637 0.139788 -0.30854 -0.0458998 0.116309 -0.307898 -0.06029 0.0928703 
-0.290997 -0.0678406 0.0700646 -0.273833 -0.0751114 0.0475864 -0.250467 -0.0758051 0.032809 
-0.227335 -0.0764041 0.0181766 -0.215462 -0.0724518 0.0105052 -0.203588 -0.0684995 0.00283375 
0.150079 0.0504338 0.138618 0.170196 0.0651195 0.121016 0.193377 0.0781795 0.103818 
0.219304 0.0906671 0.0864718 0.251454 0.101857 0.068792 0.286941 0.112206 0.0504355 
0.33077 0.12045 0.030387 0.37647 0.12741 0.00866999 0.427351 0.130815 -0.0176672 
0.472983 0.13269 -0.0468377 0.50243 0.129847 -0.0847439 0.512746 0.125575 -0.124311 
0.456967 0.116365 -0.169614 0.379948 0.106039 -0.209081 0.220088 0.0913609 -0.225786 
0.0617644 0.0759233 -0.23173 -0.0897381 0.0571118 -0.18984 -0.224585 0.0378915 -0.143962 
-0.274078 0.0165754 -0.0776452 -0.3154 -0.00475542 -0.0125708 -0.3077 -0.026175 0.0450502 
-0.300996 -0.0471982 0.0996556 -0.301442 -0.0653805 0.13265 -0.30299 -0.0829168 0.161895 
-0.314249 -0.094768 0.158149 -0.324377 -0.106047 0.152599 -0.321787 -0.110885 0.126745 
-0.31811 -0.115365 0.100947 -0.297756 -0.114349 0.0760074 -0.277164 -0.113156 0.0514213 
-0.251019 -0.107822 0.0351358 -0.225142 -0.102434 0.0190077 -0.21215 -0.0944377 0.0104312 
-0.199158 -0.0864414 0.0018547 0.164605 0.0460619 0.142259 0.182207 0.0585194 0.125236 
0.203367 0.0681188 0.109018 0.227187 0.0765197 0.0927589 0.257036 0.0822039 0.0764047 
0.289869 0.0862725 0.0594271 0.330157 0.0863019 0.0408913 0.371838 0.0839333 0.0207464 
0.41737 0.0749238 -0.0038543 0.457477 0.062839 -0.0311157 0.480851 0.0412716 -0.066581 
0.486091 0.0173169 -0.103481 0.428683 -0.0148853 -0.145336 0.351628 -0.045972 -0.181733 
0.197951 -0.0727079 -0.196842 0.0457313 -0.0961006 -0.202094 -0.100013 -0.104634 -0.163531 
-0.230227 -0.112532 -0.12123 -0.28085 -0.117166 -0.0597688 -0.323483 -0.122796 0.000527538 
-0.318169 -0.134398 0.0538344 -0.313364 -0.146134 0.104257 -0.312206 -0.158833 0.134006 
-0.311887 -0.17069 0.160256 -0.318958 -0.175144 0.15571 -0.324968 -0.17885 0.149458 
-0.319048 -0.174148 0.124005 -0.312142 -0.169148 0.0985784 -0.290112 -0.159581 0.0735549 
-0.267881 -0.149932 0.0488707 -0.240959 -0.138347 0.0321638 -0.214316 -0.126749 0.0156178 
-0.201081 -0.114511 0.00679593 -0.187847 -0.102274 -0.00202594 0.178464 0.0427746 0.145076 
0.192902 0.0526972 0.12872 0.211436 0.0587304 0.113574 0.232509 0.0630064 0.098499 
0.259336 0.0632996 0.0835842 0.288682 0.0612452 0.0681381 0.324325 0.0533218 0.0513638 
0.360681 0.0419072 0.0331489 0.399011 0.0208251 0.0109447 0.431659 -0.00485127 -0.0135253 
0.446788 -0.044693 -0.0449821 0.445455 -0.0878454 -0.0774021 0.387247 -0.142435 -0.11315 
0.312056 -0.193745 -0.144053 0.170635 -0.232262 -0.156065 0.030443 -0.263485 -0.159772 
-0.104288 -0.262287 -0.126572 -0.225539 -0.259434 -0.090048 -0.277704 -0.248104 -0.0364866 
-0.322325 -0.238701 0.0160714 -0.321683 -0.240871 0.06261 -0.32085 -0.243678 0.106502 
-0.318644 -0.251055 0.131431 -0.316894 -0.257397 0.153275 -0.319161 -0.254635 0.147978 
-0.320479 -0.250947 0.141143 -0.311124 -0.236853 0.116992 -0.300926 -0.222512 0.0928229 
-0.277797 -0.2044 0.0683796 -0.254507 -0.186296 0.0442491 -0.227457 -0.168388 0.0274731 
-0.200691 -0.150507 0.0108588 -0.187497 -0.133964 0.00200563 -0.174303 -0.117422 -0.00684763 
0.187583 0.044102 0.144881 0.198425 0.050756 0.129732 0.213681 0.0533704 0.116111 
0.23123 0.0540028 0.102677 0.253977 0.0501424 0.0896638 0.278627 0.0436143 0.0762691 
0.308033 0.0304167 0.0619205 0.337361 0.0133391 0.0464332 0.366469 -0.0144832 0.0277929 
0.389874 -0.047223 0.00745902 0.395694 -0.0951254 -0.0180971 0.387474 -0.146206 -0.0441129 
0.330749 -0.208264 -0.0717165 0.260338 -0.266277 -0.0953393 0.136549 -0.308513 -0.103436 
0.0136224 -0.34263 -0.1051 -0.105475 -0.340667 -0.0781714 -0.21373 -0.336725 -0.048545 
-0.266425 -0.322643 -0.00509282 -0.312306 -0.310594 0.037526 -0.317301 -0.310751 0.0751449 
-0.321281 -0.311529 0.110448 -0.317987 -0.316765 0.129152 -0.314653 -0.320732 0.145246 
-0.310975 -0.313542 0.138366 -0.306498 -0.305249 0.130157 -0.293046 -0.284544 0.106981 
-0.278966 -0.263584 0.0837631 -0.255261 -0.23872 0.0599056 -0.231462 -0.213921 0.0363411 
-0.205452 -0.190669 0.0196642 -0.179717 -0.167479 0.00315287 -0.167196 -0.147263 -0.00541858 
-0.154675 -0.127046 -0.0139901 0.194989 0.0470958 0.143598 0.202081 0.0502164 0.12985 
0.213822 0.0494652 0.11792 0.227566 0.0466276 0.106291 0.245853 0.0390605 0.095346 