# vtk DataFile Version 3.0
vtk output
ASCII
DATASET RECTILINEAR_GRID
FIELD FieldData 2
base_index 1 3 int
68 68 34 
avtOriginalBounds 1 6 double
3.33333 10 3.33333 10 -3.33333 3.33333 
DIMENSIONS 34 34 34
X_COORDINATES 34 float
3.33333 3.53535 3.73737 3.93939 4.14141 4.34343 4.54545 4.74747 4.94949 
5.15152 5.35354 5.55556 5.75758 5.9596 6.16162 6.36364 6.56566 6.76768 
6.9697 7.17172 7.37374 7.57576 7.77778 7.9798 8.18182 8.38384 8.58586 
8.78788 8.9899 9.19192 9.39394 9.59596 9.79798 10 
Y_COORDINATES 34 float
3.33333 3.53535 3.73737 3.93939 4.14141 4.34343 4.54545 4.74747 4.94949 
5.15152 5.35354 5.55556 5.75758 5.9596 6.16162 6.36364 6.56566 6.76768 
6.9697 7.17172 7.37374 7.57576 7.77778 7.9798 8.18182 8.38384 8.58586 
8.78788 8.9899 9.19192 9.39394 9.59596 9.79798 10 
Z_COORDINATES 34 float
-3.33333 -3.13131 -2.92929 -2.72727 -2.52525 -2.32323 -2.12121 -1.91919 -1.71717 
-1.51515 -1.31313 -1.11111 -0.909091 -0.707071 -0.505051 -0.30303 -0.10101 0.10101 
0.30303 0.50505 0.70707 0.909091 1.11111 1.31313 1.51515 1.71717 1.91919 
2.12121 2.32323 2.52525 2.72727 2.92929 3.13131 3.33333 
POINT_DATA 39304
FIELD FieldData 1
grad 3 39304 float
0.0927694 -0.0309559 -0.039446 0.0837395 -0.0490116 -0.0435083 0.0705304 -0.0611924 -0.0434324 
0.0574751 -0.0706337 -0.0415513 0.0447685 -0.0738653 -0.0355783 0.0333609 -0.0753872 -0.028525 
0.0252015 -0.0726347 -0.0187709 0.0183984 -0.0691302 -0.00861446 0.0153514 -0.0635434 0.00265595 
0.0131469 -0.0576879 0.0139179 0.01354 -0.051004 0.0251535 0.0141576 -0.0441544 0.0361546 
0.0155507 -0.0367323 0.0463454 0.0166625 -0.0290751 0.0561153 0.0166775 -0.0205012 0.0642439 
0.0160838 -0.0116047 0.0717419 0.0127846 -0.0012751 0.0764373 0.00873777 0.00938501 0.0803367 
0.000858912 0.0217391 0.0801567 -0.00774139 0.034287 0.0792102 -0.0206704 0.0479977 0.0736644 
-0.0341595 0.0616067 0.0676396 -0.0516623 0.0744862 0.058182 -0.0694427 0.0869223 0.048642 
-0.0896662 0.0954566 0.0383771 -0.109832 0.103396 0.0282954 -0.12935 0.104647 0.0202746 
-0.148589 0.105457 0.0124737 -0.16354 0.0995025 0.00804357 -0.178211 0.0933777 0.00373905 
-0.186309 0.0832588 0.0023859 -0.194287 0.073127 0.00106905 -0.196497 0.0623762 0.00149461 
-0.198707 0.0516253 0.00192017 0.0752036 -0.0307899 -0.0288301 0.0693153 -0.0460654 -0.0307651 
0.0600879 -0.0569265 -0.0298844 0.0508584 -0.0656136 -0.0277187 0.041624 -0.0693727 -0.0226402 
0.0333131 -0.0716564 -0.016716 0.0273113 -0.0702511 -0.00867714 0.0223712 -0.0680953 -0.00025802 
0.0203709 -0.0638613 0.00921416 0.0190894 -0.0592797 0.0187327 0.020024 -0.0536258 0.0283942 
0.0211838 -0.0477188 0.0378692 0.0231216 -0.0409372 0.0466999 0.0248297 -0.0338287 0.0551215 
0.0256417 -0.025445 0.0619477 0.025887 -0.0166236 0.0681163 0.0236136 -0.005856 0.0713625 
0.0205771 0.00538821 0.0737589 0.0136293 0.0190755 0.0718006 0.00585392 0.0331035 0.0690241 
-0.00688736 0.0491756 0.0613393 -0.0203728 0.0652199 0.0531699 -0.0391914 0.0810646 0.0415285 
-0.058462 0.096401 0.0298738 -0.0817104 0.107264 0.018102 -0.104964 0.11737 0.00662564 
-0.128271 0.11897 -0.00152654 -0.151248 0.120006 -0.00937474 -0.169174 0.112374 -0.0125611 
-0.186749 0.10454 -0.0155937 -0.196093 0.0919457 -0.0150142 -0.205294 0.0793453 -0.0143987 
-0.207663 0.0664544 -0.0120571 -0.210031 0.0535633 -0.00971552 0.0617479 -0.0313358 -0.0198258 
0.0578536 -0.0441352 -0.0206373 0.0512949 -0.0536644 -0.0194276 0.0446955 -0.0614987 -0.0172573 
0.0380039 -0.0654912 -0.0129092 0.0320252 -0.0682584 -0.00788856 0.0278286 -0.0679622 -0.0011864 
0.0245049 -0.0669746 0.0058479 0.0235982 -0.0640727 0.0138018 0.0233282 -0.0607909 0.0218071 
0.0250213 -0.0563379 0.0299708 0.0269569 -0.0515692 0.037951 0.0297309 -0.0457096 0.0452978 
0.0323482 -0.0394391 0.0522123 0.0343545 -0.0315664 0.0574408 0.0358683 -0.0231336 0.0619585 
0.0351925 -0.0122107 0.0633168 0.0337624 -0.000638224 0.0637511 0.028466 0.0142638 0.0594501 
0.0222188 0.0297019 0.0542622 0.0102666 0.0483565 0.0437533 -0.00268953 0.0671056 0.0327501 
-0.02284 0.086532 0.0182035 -0.0437109 0.105387 0.00374231 -0.0709218 0.119212 -0.00996778 
-0.0982399 0.13207 -0.0232137 -0.126762 0.134051 -0.0312377 -0.15488 0.135306 -0.0388345 
-0.176801 0.125432 -0.0398785 -0.198267 0.115323 -0.0407348 -0.209043 0.0996997 -0.0371798 
-0.219648 0.0840843 -0.0335941 -0.222063 0.0688585 -0.0285337 -0.224478 0.0536326 -0.0234732 
0.0496636 -0.032134 -0.0111929 0.0474174 -0.0426865 -0.011155 0.0431249 -0.0509856 -0.00978043 
0.038777 -0.0580222 -0.007723 0.0343035 -0.0621971 -0.00411778 0.0303746 -0.0653835 7.82463e-06 
0.0278071 -0.0660988 0.00543436 0.0259573 -0.0661914 0.0111443 0.0260949 -0.0645597 0.0176391 
0.0268057 -0.0625318 0.0241797 0.029284 -0.0592826 0.0308619 0.0320341 -0.05567 0.0373514 
0.0357229 -0.0508024 0.0431751 0.0393425 -0.0454542 0.0485314 0.0426924 -0.0382318 0.0520651 
0.0456457 -0.0303409 0.0548226 0.0468359 -0.0194779 0.0541301 0.0473046 -0.00780197 0.0524226 
0.0440751 0.00804065 0.0455137 0.0397767 0.0246194 0.0376234 0.0290649 0.0456149 0.0238448 
0.0170493 0.0668496 0.00953752 -0.00430943 0.0897995 -0.00855853 -0.0267261 0.112131 -0.0264593 
-0.0584534 0.129018 -0.0426414 -0.0904219 0.144717 -0.0581382 -0.125104 0.147047 -0.0659254 
-0.159285 0.148483 -0.0731244 -0.185781 0.136215 -0.0713038 -0.211692 0.123688 -0.0692596 
-0.223844 0.105065 -0.0619613 -0.235795 0.0864679 -0.0546431 -0.238094 0.0691389 -0.0463698 
-0.240393 0.0518097 -0.0380964 0.0406879 -0.0335039 -0.00340193 0.039306 -0.0423292 -0.00313612 
0.0363673 -0.0496293 -0.00196831 0.0334125 -0.0559931 -0.000290362 0.0304209 -0.0602344 0.00254392 
0.0279019 -0.0636942 0.00579389 0.0265643 -0.0652 0.0100831 0.0258654 -0.0661732 0.0146058 
0.0269352 -0.0656713 0.0197752 0.0285572 -0.0647931 0.0249613 0.0318819 -0.0627542 0.0301993 
0.0355337 -0.0603386 0.035207 0.0403159 -0.0566216 0.0394188 0.045149 -0.0523864 0.0431014 
0.0501805 -0.0461303 0.0447201 0.0549609 -0.0391287 0.0454698 0.0586253 -0.0288134 0.042357 
0.0616555 -0.0175437 0.0381005 0.0614351 -0.00138178 0.0279825 0.0600392 0.0157268 0.01673 
0.0515905 0.0385156 -0.00132863 0.0414473 0.0617394 -0.0200054 0.0191606 0.0880808 -0.0431115 
-0.00467845 0.113793 -0.0658868 -0.0421769 0.13397 -0.0857508 -0.0801234 0.152712 -0.104589 
-0.123108 0.155317 -0.111893 -0.165444 0.156844 -0.118363 -0.197829 0.141841 -0.11204 
-0.229439 0.12657 -0.105454 -0.242839 0.105014 -0.0926721 -0.256003 0.0835125 -0.0798937 
-0.257821 0.0646052 -0.0672876 -0.259639 0.0456979 -0.0546815 0.032539 -0.0350687 0.00426996 
0.0318145 -0.0423565 0.00460494 0.0299921 -0.0487664 0.00545486 0.0282017 -0.0545317 0.0066649 
0.0264838 -0.0588356 0.00869126 0.0251861 -0.0625483 0.0110424 0.024939 -0.0647827 0.0142056 
0.0252689 -0.0665741 0.0175567 0.0271972 -0.067139 0.0214283 0.029667 -0.0673561 0.0252864 
0.0338069 -0.066501 0.0291031 0.0383356 -0.0652704 0.0326491 0.0442075 -0.0627423 0.0352595 
0.0502578 -0.0596799 0.0372762 0.057004 -0.054533 0.0369773 0.06366 -0.0485956 0.0357122 
0.0699155 -0.0391445 0.0301525 0.0756508 -0.0286403 0.0233072 0.0787204 -0.0127389 0.00987211 
0.0805331 0.00427664 -0.00488393 0.0748041 0.0279767 -0.0275661 0.0669723 0.0522919 -0.0510063 
0.0440694 0.081016 -0.0798786 0.0190502 0.109132 -0.108293 -0.024593 0.1319 -0.132683 
-0.068929 0.153042 -0.155632 -0.121055 0.155884 -0.162388 -0.172357 0.157505 -0.16801 
-0.211006 0.140391 -0.156247 -0.248665 0.123014 -0.144185 -0.263035 0.099476 -0.125112 
-0.277134 0.0760174 -0.106074 -0.278235 0.0563849 -0.0887648 -0.279335 0.0367523 -0.0714551 
0.026457 -0.0371207 0.0116441 0.0258732 -0.0433453 0.0116513 0.0245727 -0.0491372 0.0119055 
0.0233751 -0.0544898 0.0124266 0.0224105 -0.0588467 0.0135526 0.0218629 -0.062761 0.014947 
0.0223575 -0.065569 0.0170125 0.0234112 -0.0680229 0.0192311 0.0260133 -0.0694965 0.0218739 
0.0291726 -0.0706735 0.0244702 0.0340501 -0.070936 0.0269229 0.0393934 -0.0708604 0.0290574 
0.0463455 -0.0696169 0.0300929 0.0536223 -0.0678762 0.0304633 0.0621659 -0.0641963 0.0282403 
0.0708187 -0.0597603 0.0249428 0.0799573 -0.0519642 0.0168697 0.0887569 -0.043124 0.00733578 
0.0958188 -0.0289326 -0.00968587 0.101605 -0.0135676 -0.0282993 0.0997375 0.00883874 -0.0564636 
0.0953142 0.0320016 -0.0856521 0.0725754 0.0605862 -0.122181 0.0469811 0.0886636 -0.158148 
-0.00374074 0.112279 -0.18917 -0.0554949 0.13421 -0.218154 -0.118861 0.137193 -0.2242 
-0.181155 0.138913 -0.22868 -0.227008 0.121252 -0.209128 -0.271588 0.103366 -0.189257 
-0.286233 0.0802196 -0.161873 -0.300574 0.0571733 -0.13458 -0.300367 0.0389477 -0.11164 
-0.300159 0.0207221 -0.0886996 0.0208188 -0.0394215 0.019056 0.0202575 -0.044709 0.0186334 
0.0193464 -0.0499577 0.0182136 0.0186119 -0.0549496 0.0179805 0.0182778 -0.0593593 0.0181707 
0.0183645 -0.0634618 0.0185832 0.0195034 -0.0667959 0.0195513 0.0211892 -0.0698615 0.0206442 
0.0243892 -0.0721833 0.0220829 0.0281634 -0.0742641 0.0234461 0.0337078 -0.0756017 0.0245767 
0.0397906 -0.07665 0.0253465 0.0477337 -0.0766989 0.0248699 0.0561398 -0.0763085 0.0236639 
0.0663517 -0.0742045 0.0196136 0.0768642 -0.0714154 0.0143903 0.088713 -0.065581 0.00395425 
0.100405 -0.0587718 -0.00810688 0.111294 -0.0469657 -0.0284969 0.120912 -0.034012 -0.0507451 
0.122898 -0.0141718 -0.0841433 0.121911 0.0064898 -0.118851 0.0996146 0.0330376 -0.162941 
0.0737381 0.0591995 -0.206392 0.0163591 0.0819659 -0.244229 -0.0423931 0.103128 -0.279413 
-0.11659 0.106243 -0.284742 -0.189467 0.108154 -0.288059 -0.242108 0.0915949 -0.260538 
-0.2932 0.0748576 -0.232686 -0.307859 0.0539346 -0.197087 -0.322188 0.0331206 -0.161636 
-0.320621 0.0175358 -0.133296 -0.319055 0.00195102 -0.104956 0.0164098 -0.0424112 0.0265723 
0.0155439 -0.0471107 0.0254376 0.0146548 -0.0520233 0.0241268 0.0140244 -0.0567983 0.0229589 
0.0139806 -0.0612611 0.0221151 0.0143815 -0.0655143 0.0214759 0.0158945 -0.0692432 0.0213479 
0.0179581 -0.0727795 0.021334 0.0215464 -0.0757822 0.0216364 0.025729 -0.0786116 0.0218464 
0.0317438 -0.0809066 0.0217714 0.0383585 -0.0829924 0.0213058 0.0470457 -0.0843553 0.0194912 
0.0563115 -0.0853939 0.0169021 0.0678346 -0.0851681 0.0112925 0.0798273 -0.0844285 0.00443892 
0.0939071 -0.0814052 -0.00794386 0.108016 -0.0776427 -0.0220851 0.122276 -0.0700925 -0.0452389 
0.13533 -0.0616565 -0.0705057 0.14115 -0.0479061 -0.10845 0.143676 -0.0334814 -0.148041 
0.122592 -0.0142244 -0.199428 0.0972442 0.00482491 -0.250178 0.0343747 0.022046 -0.295331 
-0.0302113 0.038124 -0.337173 -0.114105 0.0413433 -0.341762 -0.196431 0.043699 -0.343866 
-0.254711 0.0328108 -0.307871 -0.311182 0.0218108 -0.271567 -0.325135 0.00818575 -0.228015 
-0.338741 -0.00535557 -0.184676 -0.335678 -0.0148828 -0.151575 -0.332615 -0.02441 -0.118474 
0.0122132 -0.0457643 0.034163 0.0109862 -0.0499395 0.0322521 0.0100546 -0.0545445 0.0300008 
0.00946354 -0.0591166 0.027858 0.00964444 -0.0636137 0.0259613 0.0102946 -0.0679897 0.0242592 
0.0121179 -0.0720628 0.0230438 0.0144945 -0.0760156 0.0219382 0.0184033 -0.0796352 0.0211366 
0.0229211 -0.08315 0.0202316 0.0293167 -0.0863419 0.0190079 0.0363617 -0.0894094 0.017372 
0.0456497 -0.0920469 0.0143122 0.0556109 -0.0944849 0.0104454 0.0681977 -0.096145 0.00343137 
0.0813907 -0.0974801 -0.00487605 0.0972791 -0.0973708 -0.0189322 0.113346 -0.0967893 -0.0348404 
0.130325 -0.093787 -0.0602407 0.146153 -0.09021 -0.0879387 0.15507 -0.083185 -0.129423 
0.160447 -0.0756862 -0.172803 0.140452 -0.0647909 -0.229763 0.115668 -0.0539235 -0.286083 
0.0487297 -0.0433009 -0.336768 -0.0201908 -0.0332743 -0.383634 -0.111412 -0.029953 -0.38754 
-0.200878 -0.0270916 -0.388597 -0.263419 -0.0312812 -0.345972 -0.323953 -0.0355161 -0.303054 
-0.337346 -0.0408113 -0.253269 -0.350379 -0.0460567 -0.203748 -0.34617 -0.0489125 -0.16687 
-0.34196 -0.0517683 -0.129992 0.00867143 -0.050238 0.0419828 0.00690941 -0.0540853 0.039098 
0.00573654 -0.0584703 0.0357543 0.00498496 -0.0628825 0.0325131 0.00518833 -0.0673562 0.0295046 
0.0058871 -0.0717692 0.0267054 0.00782441 -0.0760307 0.0244296 0.0103142 -0.080233 0.0222784 
0.0143341 -0.0842716 0.0204722 0.0189614 -0.0882769 0.0185703 0.0254617 -0.0921789 0.0163737 
0.0326236 -0.0960561 0.0137679 0.0420712 -0.0998471 0.00974891 0.0522207 -0.103593 0.00492945 
0.0651076 -0.107163 -0.00301175 0.0786386 -0.11065 -0.0122286 0.0950326 -0.113773 -0.0271155 
0.111639 -0.116785 -0.043825 0.129332 -0.119232 -0.0698766 0.145889 -0.121566 -0.0981951 
0.155632 -0.123226 -0.140115 0.161821 -0.124778 -0.183909 0.142535 -0.125547 -0.241129 
0.118419 -0.126158 -0.297686 0.0517976 -0.125381 -0.348401 -0.0168344 -0.124388 -0.395254 
-0.10808 -0.120972 -0.398654 -0.197569 -0.117418 -0.399177 -0.260119 -0.11174 -0.355604 
-0.320658 -0.10604 -0.31174 -0.333939 -0.0998238 -0.261031 -0.346861 -0.0936181 -0.210589 
-0.342584 -0.0879098 -0.172967 -0.338306 -0.0822014 -0.135344 0.00524372 -0.0551567 0.0497518 
0.00293573 -0.0586856 0.0458737 0.00150062 -0.062836 0.0414295 0.000564295 -0.0670657 0.0370881 
0.000758602 -0.0714753 0.0329796 0.00147176 -0.0758801 0.0290997 0.00348208 -0.0802726 0.0257912 
0.00604044 -0.0846644 0.0226259 0.0101165 -0.0890544 0.0198572 0.0147916 -0.0934803 0.0170052 
0.0213137 -0.0980165 0.0138964 0.0284974 -0.102625 0.0103887 0.0379665 -0.107481 0.00550291 
0.0481454 -0.112442 -0.000165133 0.061093 -0.117809 -0.00888406 0.0746916 -0.123326 -0.0188405 
0.0911839 -0.129509 -0.0342973 0.107886 -0.135921 -0.0515097 0.125665 -0.143512 -0.0777196 
0.142311 -0.151417 -0.106098 0.152161 -0.161202 -0.147489 0.158512 -0.171201 -0.190646 
0.139787 -0.182742 -0.24646 0.116343 -0.193943 -0.301579 0.0513742 -0.202156 -0.35058 
-0.015558 -0.209413 -0.395822 -0.104573 -0.205926 -0.398775 -0.19189 -0.201755 -0.398932 
-0.253151 -0.187091 -0.35622 -0.312455 -0.172338 -0.313212 -0.325783 -0.155503 -0.263251 
-0.338757 -0.138731 -0.213546 -0.334752 -0.12501 -0.17613 -0.330748 -0.111288 -0.138713 
0.00220997 -0.0616131 0.0573452 -0.000681715 -0.0648565 0.0524064 -0.0024516 -0.068721 0.0468345 
-0.00365632 -0.0726899 0.0413863 -0.00357997 -0.0768955 0.0362185 -0.00297067 -0.0811355 0.0313144 
-0.00102894 -0.0854614 0.0270692 0.0014436 -0.0898354 0.022999 0.00538609 -0.0943426 0.019413 
0.00989571 -0.0989479 0.015772 0.016154 -0.103856 0.0119612 0.0230308 -0.108923 0.00778624 
0.0320443 -0.114543 0.00235299 0.0417041 -0.120399 -0.00380414 0.0538844 -0.127173 -0.0127844 
0.0666164 -0.134292 -0.0228935 0.0818006 -0.142941 -0.03802 0.0970683 -0.152085 -0.0547037 
0.112764 -0.16377 -0.0793688 0.127285 -0.176067 -0.105872 0.134753 -0.192039 -0.143401 
0.13902 -0.208409 -0.182292 0.120347 -0.227637 -0.230941 0.0975902 -0.246357 -0.278836 
0.0388903 -0.260603 -0.320098 -0.0214671 -0.273403 -0.358212 -0.100466 -0.269928 -0.360924 
-0.178026 -0.265405 -0.36129 -0.233509 -0.2448 -0.325686 -0.287297 -0.224041 -0.289762 
-0.301222 -0.199666 -0.246326 -0.31481 -0.175383 -0.203084 -0.312256 -0.155554 -0.16916 
-0.309702 -0.135725 -0.135235 -0.000707385 -0.0684525 0.0646258 -0.00416284 -0.0713885 0.0586663 
-0.00626498 -0.0749307 0.0520149 -0.00774128 -0.0785991 0.0455092 -0.00779899 -0.0825538 0.0393338 
-0.00731311 -0.0865802 0.0334566 -0.00546827 -0.0907861 0.0283248 -0.00311281 -0.0950867 0.0233994 
0.000656652 -0.0996494 0.0190458 0.00495712 -0.104369 0.0146668 0.0108949 -0.109571 0.0102095 
0.0174015 -0.115014 0.00542615 0.0258736 -0.121289 -0.000483541 0.0349194 -0.127918 -0.00705286 
0.0462028 -0.135926 -0.0161948 0.0579297 -0.144449 -0.0263486 0.0716278 -0.155256 -0.0409996 
0.0852812 -0.166782 -0.0569994 0.0987054 -0.18199 -0.0799118 0.110927 -0.198047 -0.104324 
0.115935 -0.219196 -0.137738 0.118069 -0.24087 -0.17212 0.0996143 -0.266303 -0.213435 
0.0777284 -0.291076 -0.253961 0.0256488 -0.310037 -0.287537 -0.0277786 -0.32717 -0.318574 
-0.0963669 -0.323732 -0.32106 -0.163777 -0.318961 -0.321648 -0.213123 -0.293752 -0.293135 
-0.26104 -0.26833 -0.264286 -0.275384 -0.237885 -0.227572 -0.289411 -0.207551 -0.190992 
-0.28829 -0.182605 -0.160823 -0.287168 -0.157658 -0.130655 -0.00317084 -0.076786 0.0706867 
-0.0071123 -0.0793291 0.0638619 -0.00953693 -0.0824066 0.0563193 -0.0112972 -0.0856198 0.0489484 
-0.0115517 -0.0891405 0.0419667 -0.0112656 -0.0927631 0.035316 -0.00962801 -0.0966407 0.0294926 
-0.00751155 -0.100651 0.0239069 -0.00406905 -0.105029 0.0189789 -0.000148068 -0.109607 0.0140609 
0.00524822 -0.114804 0.0091732 0.0111382 -0.120295 0.00401133 0.0187338 -0.126803 -0.00209779 
0.0267957 -0.133731 -0.00877951 0.0366766 -0.142297 -0.0176944 0.0468581 -0.151451 -0.0274715 
0.0583759 -0.163216 -0.0410812 0.069714 -0.175756 -0.0557913 0.0801305 -0.192266 -0.0761406 
0.0893789 -0.209617 -0.0976267 0.0916184 -0.232005 -0.125933 0.0914295 -0.254818 -0.154854 
0.0738373 -0.280673 -0.188179 0.0535414 -0.305781 -0.220767 0.00945312 -0.324317 -0.24687 
-0.0356598 -0.341069 -0.271031 -0.0922976 -0.33776 -0.273348 -0.148027 -0.333148 -0.274208 
-0.189831 -0.308554 -0.252716 -0.230502 -0.283708 -0.230908 -0.244566 -0.252921 -0.201686 
-0.258349 -0.222229 -0.172542 -0.258591 -0.196028 -0.147158 -0.258833 -0.169827 -0.121774 
-0.00548219 -0.0852575 0.0761951 -0.00987454 -0.0873892 0.068596 -0.01261 -0.0899773 0.0602568 
-0.0146495 -0.0927091 0.0521111 -0.0151113 -0.0957664 0.044404 -0.0150383 -0.0989546 0.0370557 
-0.0136282 -0.10247 0.0306046 -0.0117719 -0.106153 0.0244186 -0.0086801 -0.110304 0.0189674 
-0.00516286 -0.114694 0.0135598 -0.000333818 -0.119826 0.00828683 0.00491364 -0.125298 0.00279141 
0.0116065 -0.131948 -0.00347245 0.0186604 -0.139072 -0.0102218 0.0271222 -0.148045 -0.0188648 
0.0357492 -0.15766 -0.0282227 0.0451103 -0.170129 -0.0407584 0.0541719 -0.183403 -0.0541553 
0.061699 -0.200799 -0.0719658 0.0681086 -0.218999 -0.0905729 0.0678128 -0.242019 -0.11396 
0.0655239 -0.265353 -0.137645 0.0489513 -0.290938 -0.163457 0.0303595 -0.315711 -0.188594 
-0.00600012 -0.333343 -0.207792 -0.0430843 -0.349276 -0.225598 -0.088318 -0.346101 -0.227746 
-0.132895 -0.341681 -0.228844 -0.167393 -0.318183 -0.213821 -0.201039 -0.294402 -0.198506 
-0.214643 -0.263963 -0.176324 -0.227998 -0.233598 -0.15417 -0.229452 -0.206742 -0.1334 
-0.230906 -0.179886 -0.112629 -0.00711758 -0.0943426 0.0792476 -0.0118047 -0.0959813 0.0712789 
-0.0147992 -0.0979699 0.0625635 -0.0170963 -0.100104 0.0540448 -0.0178123 -0.102567 0.045972 
-0.0180117 -0.105184 0.0382638 -0.0169191 -0.108186 0.0314677 -0.0154172 -0.111382 0.0249497 
-0.0127817 -0.115115 0.0192017 -0.00977603 -0.11911 0.0135248 -0.00562891 -0.123912 0.00806671 
-0.00113902 -0.12907 0.00243763 0.00453494 -0.135454 -0.00378225 0.0104733 -0.142314 -0.0104005 
0.0174428 -0.151025 -0.0185722 0.0244745 -0.160348 -0.0273215 0.0317831 -0.17239 -0.0386382 
0.0387414 -0.185149 -0.050618 0.0439046 -0.201583 -0.0659968 0.0480734 -0.218662 -0.0819365 
0.0462761 -0.239613 -0.101242 0.0428797 -0.260721 -0.120684 0.0280244 -0.282957 -0.141109 
0.0116442 -0.304414 -0.160962 -0.0181537 -0.319021 -0.175777 -0.0484792 -0.332189 -0.189544 
-0.0847371 -0.329164 -0.191522 -0.120505 -0.325084 -0.192706 -0.148756 -0.304821 -0.1817 
-0.176358 -0.284282 -0.170442 -0.18869 -0.257248 -0.153292 -0.200811 -0.230259 -0.136148 
-0.202801 -0.20541 -0.11923 -0.204791 -0.180562 -0.102312 -0.00860378 -0.103252 0.0817269 
-0.0135498 -0.104405 0.0734836 -0.0167888 -0.105801 0.0644882 -0.0193348 -0.107342 0.0556874 
-0.0203097 -0.109212 0.0473277 -0.0207878 -0.111257 0.039333 -0.0200237 -0.113738 0.0322511 
-0.0188866 -0.116436 0.025456 -0.0167163 -0.119734 0.0194549 -0.0142294 -0.123313 0.0135496 
-0.0107661 -0.127754 0.00793939 -0.00703249 -0.13256 0.00220756 -0.00236512 -0.138626 -0.00394441 
0.00247588 -0.145161 -0.0104104 0.0079941 -0.153525 -0.018101 0.0134813 -0.162462 -0.0262377 
0.018831 -0.173953 -0.0363576 0.0237908 -0.186068 -0.0469545 0.0267532 -0.201381 -0.0599965 
0.0288471 -0.217184 -0.0733829 0.025731 -0.235926 -0.0888348 0.0213896 -0.254681 -0.104282 
0.00826804 -0.273528 -0.1197 -0.00592017 -0.29164 -0.134644 -0.0294944 -0.303276 -0.145424 
-0.0534153 -0.313727 -0.155472 -0.0812339 -0.310848 -0.157282 -0.108716 -0.307099 -0.158533 
-0.13104 -0.290013 -0.151204 -0.152903 -0.272661 -0.143664 -0.163925 -0.249071 -0.131183 
-0.174771 -0.225499 -0.118687 -0.177205 -0.202799 -0.105405 -0.179639 -0.180099 -0.0921235 
-0.00932549 -0.111263 0.081269 -0.0143465 -0.11197 0.073237 -0.0177553 -0.112806 0.0644546 
-0.0205056 -0.113779 0.0558377 -0.0217633 -0.11506 0.0475957 -0.0225531 -0.116525 0.0396901 
-0.0221733 -0.118448 0.0326256 -0.0214541 -0.120597 0.0258353 -0.0197952 -0.123371 0.0198049 
-0.0178643 -0.126425 0.0138814 -0.0150944 -0.130342 0.00828777 -0.0121103 -0.134608 0.00261156 
-0.00838619 -0.140081 -0.00334992 -0.00454924 -0.145985 -0.00955573 -0.000272027 -0.153564 -0.0167144 
0.00393038 -0.161643 -0.024218 0.00780039 -0.17194 -0.0332548 0.0112993 -0.182742 -0.0426435 
0.0128964 -0.196129 -0.0538357 0.0137656 -0.209862 -0.0652537 0.0102673 -0.225678 -0.0780264 
0.00581338 -0.241424 -0.0907477 -0.00548966 -0.256681 -0.1031 -0.0175865 -0.271294 -0.115062 
-0.0366691 -0.280235 -0.123591 -0.0560004 -0.288222 -0.131558 -0.0781288 -0.285463 -0.133208 
-0.100007 -0.282004 -0.134427 -0.118042 -0.267791 -0.129038 -0.13573 -0.253345 -0.123474 
-0.145245 -0.233402 -0.1138 -0.154615 -0.213461 -0.104104 -0.157015 -0.193631 -0.0933489 
-0.159416 -0.173802 -0.0825939 -0.00995228 -0.118902 0.0804382 -0.0150214 -0.119188 0.0726708 
-0.0185846 -0.119494 0.0641578 -0.0215275 -0.119925 0.0557788 -0.0230639 -0.120639 0.047704 
-0.0241626 -0.121543 0.0399339 -0.0241668 -0.122921 0.032926 -0.0238645 -0.124531 0.0261774 
-0.0227139 -0.126785 0.0201471 -0.0213337 -0.129315 0.014233 -0.0192458 -0.132699 0.00867692 
-0.0169964 -0.136416 0.00307504 -0.0141895 -0.14128 -0.00268492 -0.0113255 -0.146532 -0.00862269 
-0.00823939 -0.153302 -0.0152539 -0.00526613 -0.160496 -0.0221339 -0.00279437 -0.169575 -0.0301201 
-0.000671168 -0.179042 -0.0383408 -0.000334312 -0.1905 -0.0477636 -0.000588807 -0.202171 -0.0573031 
-0.00439139 -0.215119 -0.0675428 -0.00889555 -0.227926 -0.0776899 -0.0184277 -0.239728 -0.087172 
-0.0285 -0.250976 -0.0963427 -0.0433253 -0.257356 -0.102773 -0.058309 -0.262999 -0.1088 
-0.0750733 -0.260357 -0.110292 -0.0916666 -0.257174 -0.111473 -0.105637 -0.245698 -0.10788 
-0.119366 -0.23402 -0.104145 -0.127408 -0.217589 -0.0970914 -0.135333 -0.201146 -0.0900114 
-0.137671 -0.184132 -0.081644 -0.140008 -0.167117 -0.0732765 -0.0100096 -0.124312 0.0773703 
-0.0149651 -0.124332 0.0701877 -0.0185908 -0.124277 0.0622808 -0.0216552 -0.124324 0.0544645 
-0.0234472 -0.124605 0.0468533 -0.0248376 -0.125066 0.0394978 -0.025224 -0.125975 0.032782 
-0.0253325 -0.127107 0.0262953 -0.0246711 -0.128856 0.0204432 -0.0238107 -0.130865 0.0147036 
-0.0223363 -0.133675 0.00931068 -0.0207333 -0.136787 0.00389543 -0.018686 -0.140937 -0.00159689 
-0.0166087 -0.145426 -0.00721943 -0.0144143 -0.151232 -0.0133499 -0.0123362 -0.157387 -0.0196639 
-0.0107744 -0.165094 -0.0267938 -0.00951557 -0.173097 -0.034088 -0.0098092 -0.182615 -0.0422237 
-0.0105809 -0.192264 -0.0504235 -0.014221 -0.202698 -0.0590079 -0.0184008 -0.212976 -0.0674936 
-0.0264479 -0.222134 -0.075272 -0.0348958 -0.230827 -0.0827926 -0.0468705 -0.235441 -0.0880451 
-0.0589579 -0.239469 -0.0929794 -0.0723148 -0.236918 -0.0943332 -0.0855427 -0.233937 -0.0954406 
-0.0967927 -0.224372 -0.0927682 -0.10786 -0.214637 -0.0899784 -0.114626 -0.200912 -0.0844337 
-0.121297 -0.187171 -0.078863 -0.123395 -0.17264 -0.0720473 -0.125492 -0.158109 -0.0652317 
-0.0100339 -0.129344 0.0741634 -0.014861 -0.129121 0.0675763 -0.0185363 -0.128733 0.0602893 
-0.0217102 -0.128424 0.0530502 -0.0237478 -0.128297 0.0459193 -0.0254204 -0.128338 0.0389953 
-0.0261807 -0.128797 0.0325886 -0.0266909 -0.129468 0.0263803 -0.0265087 -0.130725 0.0207214 
-0.0261564 -0.132224 0.0151702 -0.0252797 -0.134467 0.0099513 -0.0243051 -0.13698 0.00473196 
-0.0229924 -0.140423 -0.000488803 -0.021674 -0.144153 -0.00579453 -0.0203335 -0.149003 -0.0114317 
-0.0191103 -0.15413 -0.0171903 -0.0184087 -0.160484 -0.0234893 -0.0179644 -0.167047 -0.0298863 
-0.0188387 -0.174671 -0.0367852 -0.0200821 -0.182351 -0.0436994 -0.0235402 -0.190359 -0.0507051 
-0.0273846 -0.198198 -0.0576075 -0.0339974 -0.204826 -0.0637702 -0.0408801 -0.211077 -0.0697262 
-0.0501379 -0.214012 -0.0738645 -0.0594662 -0.216507 -0.0777644 -0.0695863 -0.214044 -0.0789831 
-0.079617 -0.211257 -0.0800165 -0.0882744 -0.203513 -0.0782084 -0.0968043 -0.195631 -0.076306 
-0.102337 -0.184498 -0.0721871 -0.107795 -0.173344 -0.0680434 -0.109651 -0.161214 -0.0627064 
-0.111507 -0.149084 -0.0573692 -0.00982159 -0.131667 0.0699604 -0.0144144 -0.131372 0.0640457 
-0.018046 -0.130848 0.0574765 -0.0212432 -0.130376 0.0509192 -0.0234559 -0.130021 0.0443887 
-0.0253432 -0.129809 0.0380168 -0.0264167 -0.129954 0.0320414 -0.0272647 -0.130287 0.0262296 
-0.0274882 -0.131142 0.0208711 -0.027561 -0.132211 0.0156084 -0.027169 -0.133942 0.0106411 
-0.0266946 -0.135906 0.00568413 -0.0259358 -0.138676 0.000762923 -0.0251772 -0.141687 -0.00421459 
-0.024419 -0.145635 -0.00941171 -0.0237635 -0.149803 -0.0146918 -0.0235649 -0.154948 -0.0203411 
-0.0235779 -0.160243 -0.0260512 -0.024676 -0.16631 -0.0320732 -0.0260652 -0.172396 -0.0380888 
-0.0292014 -0.178599 -0.0440654 -0.0326321 -0.184645 -0.0499443 -0.0381732 -0.189568 -0.0551224 
-0.0439143 -0.194181 -0.0601271 -0.0514154 -0.196071 -0.0636052 -0.0589661 -0.197611 -0.0668898 
-0.0670736 -0.195222 -0.067997 -0.0751123 -0.192577 -0.0689537 -0.0820961 -0.186004 -0.0676024 
-0.0889826 -0.179318 -0.0661722 -0.0935811 -0.169961 -0.062888 -0.0981185 -0.160584 -0.0595814 
-0.0997188 -0.150263 -0.0551975 -0.101319 -0.139942 -0.0508136 -0.00961126 -0.133722 0.0657546 
-0.0139648 -0.133366 0.0605039 -0.0175446 -0.132723 0.0546452 -0.0207564 -0.132104 0.0487641 
-0.0231341 -0.131536 0.0428318 -0.0252257 -0.131087 0.0370112 -0.0266018 -0.130933 0.0314694 
-0.0277766 -0.130943 0.0260571 -0.0283941 -0.131408 0.0210035 -0.0288796 -0.132061 0.0160336 
-0.0289578 -0.13329 0.0113218 -0.0289683 -0.134717 0.00663034 -0.0287448 -0.136829 0.00200896 
-0.0285262 -0.139135 -0.0026414 -0.028327 -0.142199 -0.00740488 -0.0282156 -0.145428 -0.0122146 
-0.0284945 -0.149391 -0.0172302 -0.0289405 -0.15345 -0.0222715 -0.0302432 -0.158004 -0.0274443 
-0.031762 -0.162546 -0.0325904 -0.0345774 -0.167007 -0.0375756 -0.0375997 -0.171324 -0.0424687 
-0.0421044 -0.174609 -0.0467014 -0.0467428 -0.177649 -0.0507925 -0.0525573 -0.17854 -0.0536374 
-0.0584015 -0.179169 -0.0563315 -0.0645802 -0.176853 -0.0573298 -0.0707098 -0.174346 -0.0582109 
-0.0760868 -0.168898 -0.0572943 -0.0813952 -0.16336 -0.0563137 -0.0850898 -0.155712 -0.0538285 
-0.0887365 -0.148045 -0.0513233 -0.0900862 -0.139474 -0.0478566 -0.091436 -0.130903 -0.0443898 
-0.00941807 -0.133416 0.0615252 -0.0134888 -0.133102 0.0568639 -0.0169457 -0.132476 0.051651 
-0.0200954 -0.131848 0.0463955 -0.0225491 -0.131214 0.0410432 -0.0247544 -0.13067 0.0357667 
-0.0263389 -0.130348 0.03068 -0.027744 -0.130162 0.0256934 -0.0286521 -0.130352 0.0209846 
-0.0294412 -0.130699 0.0163458 -0.0298631 -0.13153 0.0119234 -0.0302234 -0.132527 0.00752407 
-0.0303707 -0.134093 0.00320499 -0.0305194 -0.135818 -0.00112773 -0.0306733 -0.138157 -0.00551361 
-0.0308969 -0.140623 -0.00992474 -0.0314301 -0.143656 -0.0144482 -0.0320948 -0.146756 -0.0189789 
-0.0334337 -0.150197 -0.0235465 -0.0349391 -0.153614 -0.0280794 -0.0374443 -0.156886 -0.0324038 
-0.0401055 -0.160032 -0.0366434 -0.0438846 -0.16228 -0.0402754 -0.0477622 -0.164328 -0.0437864 
-0.0525053 -0.164627 -0.0462339 -0.0572685 -0.164718 -0.048556 -0.0622567 -0.162469 -0.0494686 
-0.0672063 -0.160069 -0.0502839 -0.0715644 -0.155333 -0.0496083 -0.0758695 -0.150525 -0.0488786 
-0.0789265 -0.143999 -0.0468784 -0.0819444 -0.137456 -0.0448605 -0.0830873 -0.130113 -0.0419935 
-0.0842302 -0.122769 -0.0391265 -0.00923547 -0.132964 0.0573347 -0.0130238 -0.132694 0.0532523 
-0.0163543 -0.13209 0.0486745 -0.0194375 -0.131459 0.0440348 -0.0219602 -0.130766 0.039255 
-0.0242719 -0.130134 0.0345165 -0.0260562 -0.129654 0.0298814 -0.0276827 -0.12928 0.025318 
-0.0288721 -0.129203 0.0209532 -0.0299551 -0.129253 0.0166452 -0.0307102 -0.129697 0.0125121 
-0.0314095 -0.130274 0.00840483 -0.031916 -0.131308 0.00438675 -0.0324199 -0.132463 0.000369747 
-0.0329144 -0.134093 -0.0036431 -0.0334606 -0.135815 -0.00766103 -0.0342366 -0.137941 -0.0117017 
-0.0351095 -0.140106 -0.0157319 -0.0364786 -0.142464 -0.0197086 -0.0379664 -0.144787 -0.0236432 
-0.0401666 -0.146907 -0.0273248 -0.0424738 -0.148919 -0.0309288 -0.0455478 -0.150164 -0.0339775 
-0.0486864 -0.151254 -0.0369255 -0.0523925 -0.150983 -0.0389873 -0.0561094 -0.150556 -0.0409484 
-0.0599463 -0.148375 -0.0417769 -0.0637548 -0.146079 -0.0425277 -0.0671269 -0.142034 -0.0420843 
-0.0704607 -0.137933 -0.0415965 -0.0728979 -0.132495 -0.0400659 -0.0753046 -0.127043 -0.0385198 
-0.0762453 -0.120894 -0.0362352 -0.077186 -0.114744 -0.0339505 -0.00917197 -0.130863 0.0535823 
-0.0126821 -0.130669 0.0499607 -0.015848 -0.130142 0.0458964 -0.0188142 -0.129572 0.0417629 
-0.0213277 -0.128901 0.0374724 -0.0236625 -0.128267 0.0332016 -0.0255507 -0.127722 0.0289803 
-0.0273 -0.127257 0.0248102 -0.0286648 -0.127015 0.0207823 -0.0299331 -0.126873 0.0167998 
-0.0309038 -0.127042 0.0129572 -0.0318211 -0.127317 0.00913949 -0.0325538 -0.127955 0.0054081 
-0.0332783 -0.128689 0.00168492 -0.0339708 -0.129794 -0.00200624 -0.0346997 -0.130968 -0.00569208 
-0.0355904 -0.132444 -0.00935439 -0.0365532 -0.133943 -0.0129979 -0.0378862 -0.135562 -0.0165455 
-0.039308 -0.137145 -0.0200492 -0.0412622 -0.138522 -0.0232895 -0.0432954 -0.139807 -0.026459 
-0.0458949 -0.140443 -0.0291219 -0.0485409 -0.140954 -0.0316975 -0.0515955 -0.140361 -0.0335059 
-0.0546561 -0.139644 -0.035229 -0.0577848 -0.137529 -0.0359931 -0.0608905 -0.135323 -0.0366916 
-0.0636436 -0.131723 -0.0363831 -0.0663667 -0.128077 -0.0360368 -0.068385 -0.123348 -0.0348013 
-0.0703782 -0.118607 -0.0335523 -0.0711692 -0.113271 -0.0316552 -0.0719602 -0.107935 -0.0297581 
-0.00911598 -0.128701 0.0498652 -0.0123499 -0.128581 0.0466975 -0.0153506 -0.128132 0.0431391 