# vtk DataFile Version 2.0
vtk output
ASCII
DATASET RECTILINEAR_GRID
FIELD FieldData 2
base_index 1 3 int
34 34 0 
avtOriginalBounds 1 6 double
-3.33333 3.33333 -3.33333 3.33333 -10 -3.33333 
DIMENSIONS 34 34 34
X_COORDINATES 34 float
-3.33333 -3.13131 -2.92929 -2.72727 -2.52525 -2.32323 -2.12121 -1.91919 -1.71717 
-1.51515 -1.31313 -1.11111 -0.909091 -0.707071 -0.505051 -0.30303 -0.10101 0.10101 
0.30303 0.50505 0.70707 0.909091 1.11111 1.31313 1.51515 1.71717 1.91919 
2.12121 2.32323 2.52525 2.72727 2.92929 3.13131 3.33333 
Y_COORDINATES 34 float
-3.33333 -3.13131 -2.92929 -2.72727 -2.52525 -2.32323 -2.12121 -1.91919 -1.71717 
-1.51515 -1.31313 -1.11111 -0.909091 -0.707071 -0.505051 -0.30303 -0.10101 0.10101 
0.30303 0.50505 0.70707 0.909091 1.11111 1.31313 1.51515 1.71717 1.91919 
2.12121 2.32323 2.52525 2.72727 2.92929 3.13131 3.33333 
Z_COORDINATES 34 float
-10 -9.79798 -9.59596 -9.39394 -9.19192 -8.9899 -8.78788 -8.58586 -8.38384 
-8.18182 -7.9798 -7.77778 -7.57576 -7.37374 -7.17172 -6.9697 -6.76768 -6.56566 
-6.36364 -6.16162 -5.9596 -5.75758 -5.55556 -5.35354 -5.15152 -4.9495 -4.74747 
-4.54545 -4.34343 -4.14141 -3.93939 -3.73737 -3.53535 -3.33333 
POINT_DATA 39304
FIELD FieldData 1
grad 3 39304 float
-0.0172667 0.0874914 0.0815987 -0.0207231 0.0849823 0.0796188 -0.0236259 0.0823758 0.0775588 
-0.0262347 0.0797174 0.0754561 -0.0283698 0.0771874 0.0733237 -0.03023 0.0747318 0.0711741 
-0.0317318 0.0725155 0.0690253 -0.0330068 0.0704508 0.0668769 -0.0340293 0.0686399 0.0647473 
-0.0348777 0.0670042 0.0626304 -0.0355472 0.0655747 0.0605454 -0.0360827 0.0642999 0.0584842 
-0.0364765 0.0631568 0.0564683 -0.0367548 0.0621209 0.0544894 -0.0369004 0.0611454 0.0525714 
-0.0369285 0.0602231 0.0507072 -0.0368195 0.0593101 0.0489208 -0.036579 0.0584062 0.0472089 
-0.0361986 0.0574856 0.0455911 -0.0356724 0.0565477 0.0440713 -0.0350143 0.0555857 0.0426595 
-0.0342072 0.0545964 0.0413696 -0.0332894 0.053584 0.040197 -0.0322356 0.052543 0.0391685 
-0.0311018 0.0514805 0.0382615 -0.0298613 0.0503891 0.0375165 -0.0285754 0.0492754 0.0368914 
-0.0272236 0.0481292 0.03644 -0.0258593 0.0469579 0.0361013 -0.0244754 0.0457469 0.0359405 
-0.0231069 0.0445082 0.0358808 -0.0217648 0.0432217 0.0359952 -0.0204591 0.0419072 0.0361961 
-0.019222 0.0405398 0.03656 -0.019634 0.0925928 0.0845769 -0.0232933 0.0896584 0.0822265 
-0.0262609 0.086641 0.0798238 -0.0288611 0.0835795 0.0773933 -0.0308998 0.0807012 0.0749809 
-0.0326125 0.0779291 0.072579 -0.0339306 0.0754598 0.0702308 -0.0349988 0.0731822 0.0679165 
-0.0358182 0.0712103 0.0656692 -0.0364661 0.0694492 0.0634681 -0.036962 0.0679249 0.0613371 
-0.0373441 0.0665781 0.0592588 -0.0376187 0.0653721 0.057253 -0.0378057 0.0642806 0.0553062 
-0.0378895 0.0632432 0.0534371 -0.0378819 0.0622534 0.0516365 -0.0377565 0.0612609 0.049922 
-0.0375179 0.0602655 0.04829 -0.0371483 0.0592441 0.0467543 -0.0366421 0.0581953 0.0453189 
-0.0360064 0.0571197 0.0439893 -0.0352243 0.0560136 0.0427792 -0.0343313 0.0548882 0.0416811 
-0.0333022 0.0537392 0.0407203 -0.0321934 0.0525768 0.0398729 -0.0309783 0.0513964 0.0391767 
-0.0297192 0.050203 0.0385901 -0.0283962 0.0489909 0.0381624 -0.0270628 0.0477622 0.0378358 
-0.0257128 0.0465075 0.0376686 -0.0243797 0.0452319 0.0375904 -0.0230756 0.0439203 0.0376653 
-0.0218083 0.0425856 0.0378153 -0.02061 0.0412071 0.0381065 -0.0226346 0.0982009 0.0886112 
-0.0265125 0.0946949 0.0857569 -0.0295154 0.0911507 0.0828931 -0.0320535 0.0875863 0.0800242 
-0.0339242 0.084295 0.0772405 -0.0354073 0.0811623 0.0745064 -0.036462 0.0784245 0.0718958 
-0.0372453 0.0759367 0.0693635 -0.0377973 0.0738238 0.0669584 -0.0381898 0.0719694 0.0646411 
-0.0384751 0.0703877 0.0624397 -0.0386798 0.0690103 0.0603253 -0.0388263 0.0677772 0.058314 
-0.0389254 0.0666615 0.0563868 -0.0389593 0.0655814 0.054555 -0.0389356 0.0645328 0.0528077 
-0.0388142 0.0634566 0.0511551 -0.038599 0.0623539 0.0495934 -0.0382572 0.0612073 0.0481306 
-0.0377836 0.0600148 0.0467708 -0.0371766 0.0587904 0.0455156 -0.0364189 0.0575297 0.0443784 
-0.0355454 0.0562559 0.0433491 -0.0345296 0.0549659 0.042452 -0.0334319 0.0536746 0.0416615 
-0.0322247 0.0523816 0.0410133 -0.0309744 0.0510891 0.0404656 -0.0296615 0.0497973 0.0400638 
-0.0283409 0.048501 0.0397524 -0.0270081 0.0471973 0.0395837 -0.0256949 0.0458819 0.0394926 
-0.0244156 0.0445464 0.0395351 -0.0231744 0.043194 0.0396417 -0.0220052 0.0418099 0.039869 
-0.0259716 0.104078 0.0932064 -0.0300764 0.0999229 0.0897775 -0.033099 0.0957904 0.0863896 
-0.0355466 0.09167 0.0830236 -0.0372112 0.0879314 0.0798203 -0.0384212 0.0844146 0.0767114 
-0.0391701 0.0814 0.0738049 -0.0396269 0.0787035 0.0710268 -0.0398774 0.0764603 0.0684426 
-0.0399855 0.0745297 0.0659923 -0.0400403 0.0729104 0.0637074 -0.040055 0.0715244 0.0615468 
-0.0400687 0.0702832 0.0595218 -0.0400817 0.0691599 0.0576074 -0.0400721 0.0680474 0.055807 
-0.0400426 0.0669444 0.0541074 -0.0399361 0.0657825 0.0525114 -0.0397556 0.0645639 0.0510149 
-0.0394507 0.0632792 0.0496202 -0.0390163 0.0619256 0.0483314 -0.0384414 0.0605337 0.0471463 
-0.0377079 0.0590985 0.0460783 -0.036851 0.0576573 0.0451147 -0.0358425 0.0562087 0.0442791 
-0.0347483 0.0547732 0.0435442 -0.0335398 0.053355 0.0429435 -0.0322887 0.051953 0.042435 
-0.0309761 0.0505744 0.0420603 -0.0296588 0.0492049 0.0417658 -0.0283342 0.0478495 0.0415981 
-0.0270327 0.0464928 0.0414971 -0.0257709 0.0451339 0.0415108 -0.0245496 0.0437653 0.0415781 
-0.0234043 0.0423785 0.0417462 -0.0302476 0.110142 0.0992464 -0.0345554 0.105159 0.0950073 
-0.0375136 0.100313 0.0908983 -0.0397548 0.0955407 0.0868585 -0.041082 0.0913102 0.0830986 
-0.0418787 0.0873943 0.0795013 -0.0421945 0.0841248 0.0762159 -0.0422058 0.0812649 0.073128 
-0.0420626 0.0789576 0.0703202 -0.0418128 0.0770315 0.0677057 -0.041594 0.075459 0.0653165 
-0.0413984 0.0741518 0.0630962 -0.0412844 0.0729769 0.0610475 -0.0412369 0.0719099 0.0591386 
-0.0412222 0.0708051 0.0573615 -0.0412365 0.0696668 0.0557009 -0.0411931 0.0684151 0.0541509 
-0.0410941 0.0670543 0.052707 -0.0408622 0.0655921 0.0513669 -0.040492 0.0640243 0.0501347 
-0.0399621 0.0624102 0.0490061 -0.0392516 0.060744 0.0479945 -0.0384015 0.0590842 0.0470856 
-0.0373801 0.0574325 0.0463025 -0.0362657 0.0558151 0.0456161 -0.0350274 0.0542435 0.0450587 
-0.0337472 0.0527096 0.044587 -0.0324064 0.0512302 0.0442397 -0.0310658 0.0497773 0.043964 
-0.0297255 0.0483661 0.0438015 -0.028414 0.0469663 0.0436959 -0.0271517 0.0455858 0.0436882 
-0.025934 0.044204 0.0437243 -0.0248001 0.0428198 0.0438426 -0.0350688 0.116315 0.106125 
-0.0395657 0.110399 0.100939 -0.0424107 0.104768 0.0959947 -0.0443781 0.0992878 0.0911784 
-0.0452918 0.0945394 0.0867826 -0.0455937 0.0902156 0.082631 -0.0454026 0.0867041 0.0789183 
-0.0448993 0.0837071 0.0754835 -0.0443089 0.0813742 0.0724263 -0.0436584 0.0794994 0.0696295 
-0.043141 0.0780229 0.0671237 -0.0427234 0.076845 0.0648361 -0.0424846 0.0757797 0.0627578 
-0.0423914 0.074806 0.06085 -0.0423939 0.0737322 0.0590915 -0.0424809 0.0725698 0.0574651 
-0.0425285 0.0712258 0.0559549 -0.0425382 0.0697076 0.0545563 -0.0424004 0.068045 0.0532629 
-0.0421089 0.0662321 0.052079 -0.0416312 0.0643642 0.050999 -0.040943 0.062434 0.0500364 
-0.0400942 0.060526 0.0491756 -0.0390481 0.0586452 0.0484397 -0.0378998 0.0568241 0.0477978 
-0.0366151 0.0550827 0.0472813 -0.0352893 0.0534038 0.0468451 -0.0339038 0.0518155 0.0465253 
-0.0325245 0.0502733 0.0462695 -0.0311548 0.048804 0.0461147 -0.0298206 0.0473599 0.0460076 
-0.0285474 0.0459591 0.0459827 -0.0273239 0.0445659 0.0459922 -0.026194 0.0431871 0.0460662 
-0.0411814 0.121951 0.114907 -0.0457631 0.114949 0.108377 -0.0483223 0.108455 0.102287 
-0.049807 0.102231 0.0964309 -0.0500954 0.096986 0.0912097 -0.0496889 0.0923092 0.0863571 
-0.0488065 0.0886478 0.0821194 -0.0476227 0.0856294 0.0782714 -0.0464629 0.0834081 0.0749268 
-0.0453198 0.0817367 0.0719294 -0.0444609 0.0805103 0.0693015 -0.0438152 0.0796178 0.0669507 
-0.0434869 0.0787939 0.0648482 -0.0434174 0.0780258 0.0629479 -0.0435254 0.0770512 0.0612083 
-0.0437906 0.0758939 0.0596108 -0.0440269 0.0744456 0.0581282 -0.0442353 0.0727181 0.0567559 
-0.0442574 0.0707842 0.0554868 -0.0440856 0.0686353 0.0543251 -0.0436778 0.0664255 0.0532684 
-0.0430033 0.0641468 0.0523305 -0.0421338 0.0619184 0.0514969 -0.041025 0.0597516 0.0507914 
-0.0398013 0.057682 0.0501805 -0.0384243 0.055742 0.0496958 -0.0370089 0.0538972 0.0492889 
-0.0355378 0.0521904 0.0489945 -0.0340826 0.0505534 0.0487582 -0.0326523 0.0490268 0.0486137 
-0.0312679 0.0475409 0.0485089 -0.0299622 0.046125 0.0484729 -0.0287142 0.044726 0.0484626 
-0.0275746 0.0433592 0.0485009 -0.0481118 0.127248 0.124895 -0.0527122 0.119062 0.116768 
-0.0548764 0.111656 0.109336 -0.0557463 0.104665 0.102274 -0.055275 0.0989371 0.0961073 
-0.0540249 0.093942 0.0904608 -0.0523345 0.0901888 0.0856365 -0.050365 0.0872224 0.0813331 
-0.0485586 0.0851997 0.077677 -0.0468646 0.0838279 0.0744673 -0.045637 0.0829494 0.0717138 
-0.0447592 0.0824409 0.0693026 -0.0443639 0.0819419 0.0671792 -0.0443618 0.0814507 0.0652906 
-0.0446315 0.0806185 0.06357 -0.0451417 0.0794848 0.0619981 -0.0456284 0.0779245 0.0605353 
-0.0460924 0.0759547 0.0591774 -0.0463163 0.0737045 0.0579183 -0.0462901 0.0711623 0.0567623 
-0.0459634 0.068555 0.055713 -0.0452972 0.0658741 0.0547844 -0.0443932 0.0632794 0.0539647 
-0.0431976 0.0607907 0.0532788 -0.0418721 0.0584442 0.0526904 -0.0403736 0.0562874 0.0522319 
-0.0388408 0.0542634 0.0518503 -0.0372584 0.0524319 0.0515799 -0.0357038 0.0506967 0.051363 
-0.0341931 0.0491134 0.0512303 -0.0327409 0.0475873 0.0511304 -0.0313892 0.0461595 0.0510869 
-0.0301048 0.0447585 0.0510613 -0.0289468 0.0434076 0.0510691 -0.0565683 0.130666 0.137148 
-0.0609607 0.121315 0.126819 -0.0624483 0.113085 0.117613 -0.0623927 0.10545 0.109002 
-0.0608718 0.0993931 0.101666 -0.0584999 0.0942521 0.0950691 -0.0557677 0.0905982 0.0895701 
-0.0528073 0.087886 0.0847664 -0.0502067 0.0862831 0.0807912 -0.0478541 0.0854452 0.0773873 
-0.0462228 0.0851554 0.074542 -0.0451324 0.0852768 0.0721157 -0.0447596 0.0853139 0.0700126 
-0.0449713 0.0852821 0.0681726 -0.0455803 0.0846974 0.0664887 -0.0465406 0.0836235 0.0649429 
-0.0474597 0.0819159 0.0634807 -0.0483393 0.0795999 0.0620989 -0.0488735 0.0769066 0.0608039 
-0.0490479 0.0738204 0.0595994 -0.0488157 0.0706816 0.0585068 -0.0481237 0.0674832 0.0575408 
-0.0471339 0.0644326 0.0566957 -0.0457785 0.0615634 0.0559989 -0.0442787 0.0588994 0.055409 
-0.0425863 0.0565091 0.0549614 -0.0408708 0.0542979 0.0545938 -0.0391217 0.0523465 0.0543421 
-0.0374197 0.0505205 0.0541414 -0.0357921 0.0488923 0.0540213 -0.0342407 0.0473379 0.053928 
-0.0328207 0.0459104 0.0538809 -0.0314808 0.0445186 0.0538442 -0.0302919 0.0431935 0.0538272 
-0.0660774 0.132788 0.150963 -0.0701052 0.122286 0.138016 -0.0707221 0.113291 0.126735 
-0.0695268 0.105097 0.116341 -0.0667561 0.0988181 0.10768 -0.0630708 0.0936502 0.100025 
-0.0591358 0.090227 0.093791 -0.0550427 0.0879087 0.0884559 -0.0515461 0.0868782 0.0841563 
-0.0484607 0.0867357 0.0805707 -0.0464015 0.0872008 0.0776569 -0.045112 0.0881216 0.0752471 
-0.0448232 0.0888402 0.0731922 -0.0453498 0.0893939 0.0714266 -0.0464205 0.0891291 0.0697916 
-0.0479725 0.08814 0.0682721 -0.0494497 0.0862607 0.0667972 -0.0508549 0.0835267 0.0653653 
-0.0517743 0.080303 0.0640027 -0.0521874 0.076569 0.0627124 -0.0520588 0.0728062 0.0615416 
-0.0513176 0.0690108 0.0605058 -0.0502064 0.0654424 0.059608 -0.0486411 0.0621524 0.0588795 
-0.0469168 0.059143 0.0582715 -0.0449807 0.0565076 0.0578242 -0.0430374 0.0541037 0.0574628 
-0.0410835 0.0520356 0.0572262 -0.039201 0.0501238 0.0570397 -0.0374311 0.0484589 0.0569324 
-0.035759 0.0468845 0.0568469 -0.0342553 0.0454657 0.0567988 -0.032847 0.0440908 0.0567543 
-0.0316183 0.0427983 0.0567163 -0.0768284 0.131087 0.166831 -0.0801607 0.119866 0.150533 
-0.0795682 0.110511 0.136713 -0.0768905 0.102148 0.124207 -0.0725697 0.0959822 0.114038 
-0.0672948 0.0910928 0.105224 -0.0619187 0.0881752 0.098226 -0.0564786 0.0865064 0.0923774 
-0.0519228 0.0863152 0.0878152 -0.0479769 0.0871432 0.08414 -0.0454603 0.0886663 0.0812728 
-0.0440156 0.0907108 0.0790116 -0.0439777 0.0924049 0.0771229 -0.0450861 0.0938134 0.0755379 
-0.046943 0.0940144 0.0740052 -0.0494619 0.0931472 0.0725188 -0.0518158 0.0910204 0.0709875 
-0.0540111 0.0876842 0.0694132 -0.0554745 0.0837331 0.0678776 -0.0561754 0.0791415 0.0663822 
-0.0561309 0.0745906 0.0650278 -0.0552437 0.0700856 0.0638326 -0.0538991 0.0659274 0.0628103 
-0.051993 0.0621945 0.0620002 -0.049925 0.0588365 0.0613362 -0.0476413 0.0559782 0.0608671 
-0.0453818 0.0534085 0.060496 -0.0431575 0.0512571 0.060267 -0.0410401 0.0492916 0.0600897 
-0.0390917 0.0476199 0.0599944 -0.0372693 0.0460524 0.0599165 -0.0356638 0.0446645 0.0598687 
-0.0341724 0.043326 0.0598178 -0.0328959 0.0420809 0.0597609 -0.088511 0.126518 0.184238 
-0.0908994 0.114903 0.164042 -0.0888435 0.105491 0.147331 -0.0844266 0.0972503 0.13247 
-0.0783302 0.0914508 0.120654 -0.0712588 0.0870688 0.110605 -0.0642629 0.0848629 0.102821 
-0.0573149 0.0840353 0.0964729 -0.0515776 0.0848838 0.0916944 -0.0466753 0.0868883 0.0879987 
-0.043679 0.0896968 0.0852643 -0.0421122 0.0931083 0.0832509 -0.0424504 0.0959984 0.0816169 
-0.0443408 0.0984634 0.0802921 -0.0472271 0.0992398 0.0789017 -0.0509946 0.0985224 0.0774534 
-0.0544641 0.0960911 0.075833 -0.0576477 0.0920146 0.0740473 -0.0597743 0.0871886 0.0722595 
-0.0607999 0.0815819 0.0704697 -0.0608249 0.0761197 0.0688526 -0.059719 0.0708208 0.0674307 
-0.0580567 0.0660187 0.06623 -0.0557119 0.0618264 0.0653009 -0.0532108 0.0581174 0.0645526 
-0.0505016 0.055053 0.0640452 -0.0478598 0.0523375 0.0636523 -0.0453156 0.0501278 0.0634253 
-0.0429227 0.0481327 0.0632536 -0.0407685 0.0464766 0.0631693 -0.0387736 0.0449364 0.063099 
-0.0370528 0.0435958 0.0630526 -0.0354674 0.0423086 0.0629965 -0.034137 0.0411219 0.0629222 
-0.100049 0.116389 0.202078 -0.101255 0.105351 0.177554 -0.0975448 0.0966357 0.157749 
-0.0912224 0.0891547 0.140451 -0.0832073 0.0841792 0.126992 -0.0742094 0.0806586 0.115761 
-0.0654441 0.0794124 0.107287 -0.0568263 0.0796068 0.10056 -0.0497428 0.081658 0.0957358 
-0.0437176 0.0849899 0.0922235 -0.0401838 0.0892922 0.0898772 -0.0385185 0.0943224 0.0884053 
-0.0394711 0.0986785 0.0873019 -0.0425568 0.102485 0.0864988 -0.0470001 0.103987 0.0853798 
-0.0526443 0.103449 0.0839815 -0.0577347 0.10062 0.0821591 -0.0622935 0.0955922 0.0799296 
-0.065272 0.0897142 0.077647 -0.0666044 0.0829508 0.075309 -0.0665897 0.0765112 0.0732223 
-0.0650523 0.0704378 0.0714199 -0.0628666 0.0650455 0.0699258 -0.0598851 0.0604892 0.06881 
-0.0567861 0.0565261 0.0679287 -0.0535304 0.0533541 0.0673598 -0.0504106 0.0505821 0.066929 
-0.0474879 0.04839 0.0666983 -0.0447743 0.0464317 0.0665284 -0.0423912 0.0448427 0.0664546 
-0.0402068 0.0433743 0.0663912 -0.0383645 0.0421138 0.0663458 -0.0366813 0.040906 0.0662839 
-0.0352977 0.0397975 0.066191 -0.111469 0.101731 0.22027 -0.111299 0.0920599 0.191067 
-0.105779 0.0846546 0.168004 -0.0974152 0.0784532 0.148203 -0.0873646 0.0746751 0.133104 
-0.0763343 0.0723041 0.120734 -0.0656778 0.0722197 0.111648 -0.0552582 0.0735834 0.104641 
-0.0466944 0.0769703 0.0999094 -0.0394104 0.0817524 0.0967466 -0.0352919 0.0877184 0.0949963 
-0.0335475 0.0945723 0.0943053 -0.0353088 0.100614 0.0939574 -0.0399267 0.105995 0.093889 
-0.0463566 0.108343 0.0931465 -0.0543894 0.108009 0.0918078 -0.0615122 0.104707 0.0896916 
-0.0677615 0.0985564 0.086829 -0.0717457 0.0914822 0.0838537 -0.0733704 0.0834464 0.0807608 
-0.073227 0.0759757 0.0780362 -0.0710849 0.0691436 0.0757278 -0.0682077 0.0632048 0.0738463 
-0.0644284 0.0583623 0.0724888 -0.0605971 0.054224 0.0714348 -0.0566965 0.0510248 0.0707856 
-0.0530209 0.0482691 0.0703039 -0.0496716 0.0461564 0.0700648 -0.0466009 0.044289 0.0698936 
-0.0439698 0.0428089 0.0698297 -0.0415821 0.0414487 0.0697728 -0.0396132 0.0402949 0.0697282 
-0.0378291 0.0391896 0.06966 -0.0363929 0.0381753 0.0695473 -0.120208 0.0817615 0.235537 
-0.118879 0.0745651 0.202254 -0.111803 0.0692429 0.176418 -0.101674 0.0649165 0.154538 
-0.0898053 0.0626834 0.138127 -0.0769262 0.0616657 0.124892 -0.0644475 0.0627692 0.11543 
-0.0522226 0.0652161 0.108358 -0.0420664 0.0697393 0.103977 -0.033337 0.0756944 0.101451 
-0.0285033 0.083042 0.100704 -0.0265913 0.0914339 0.101289 -0.0293759 0.0989758 0.102219 
-0.0359874 0.105825 0.103429 -0.0450588 0.108981 0.103326 -0.0563063 0.10887 0.102059 
-0.0660757 0.105182 0.0993977 -0.0744262 0.0980599 0.0953981 -0.0795393 0.090042 0.0912628 
-0.0812799 0.0810905 0.0869859 -0.0807648 0.0729636 0.0833073 -0.0776995 0.0657691 0.0803048 
-0.0738668 0.0596377 0.0779077 -0.0690921 0.0548112 0.0762535 -0.0643823 0.0507535 0.0749923 
-0.0597592 0.047721 0.0742549 -0.0554755 0.0451434 0.0737188 -0.0516841 0.0432256 0.0734747 
-0.0482495 0.0415458 0.0733054 -0.0453785 0.0402417 0.0732541 -0.0427974 0.0390461 0.0732054 
-0.0407158 0.0380375 0.0731611 -0.0388442 0.0370674 0.0730852 -0.0373681 0.0361696 0.0729497 
-0.126575 0.057093 0.248215 -0.124278 0.0533515 0.211383 -0.115873 0.0507965 0.183203 
-0.104222 0.0488719 0.15962 -0.0907275 0.0484912 0.142188 -0.0761619 0.0490068 0.128328 
-0.0619222 0.0513215 0.1187 -0.0478887 0.0547754 0.111752 -0.0360412 0.0602586 0.10795 
-0.0257012 0.0671413 0.106317 -0.0200368 0.075621 0.106932 -0.0178791 0.0852984 0.109232 
-0.0218768 0.0941754 0.111901 -0.0308899 0.1024 0.114872 -0.0431822 0.106329 0.115638 
-0.0583751 0.106457 0.114455 -0.0713345 0.10246 0.111027 -0.0821495 0.0945022 0.105444 
-0.0885004 0.0857638 0.0997356 -0.0902011 0.0762119 0.0938951 -0.0890993 0.0677609 0.0889828 
-0.0848291 0.0605542 0.0851197 -0.079807 0.0545434 0.0820935 -0.0738621 0.0500003 0.0800944 
-0.0681447 0.0462494 0.0785951 -0.0627304 0.043555 0.0777625 -0.0577924 0.0412988 0.0771693 
-0.053545 0.0396781 0.0769231 -0.0497409 0.0382714 0.0767584 -0.0466368 0.0372025 0.0767223 
-0.0438713 0.0362216 0.0766833 -0.041689 0.0353922 0.0766389 -0.0397419 0.0345863 0.0765541 
-0.0382372 0.0338245 0.0763929 -0.128216 0.0304764 0.254786 -0.125684 0.0305484 0.21616 
-0.11667 0.0309593 0.186818 -0.104213 0.0315504 0.162408 -0.089694 0.0329877 0.144539 
-0.0739772 0.0349162 0.130468 -0.058375 0.0381436 0.120954 -0.0428456 0.0421937 0.114327 
-0.0294564 0.0479798 0.111277 -0.0175432 0.0549633 0.110694 -0.0109822 0.0635016 0.112942 
-0.00843521 0.0732061 0.117315 -0.0136312 0.0822302 0.122204 -0.0251361 0.0906998 0.127513 
-0.0408687 0.0948762 0.129427 -0.060341 0.0952547 0.128337 -0.0766709 0.0915356 0.123876 
-0.0899839 0.0838828 0.116179 -0.0974669 0.0756217 0.108488 -0.098877 0.066727 0.100805 
-0.0969875 0.0590132 0.0944958 -0.0913678 0.0526344 0.0897401 -0.0850818 0.0474136 0.0860815 
-0.077978 0.0436137 0.0837695 -0.0712882 0.0405336 0.0820641 -0.0651504 0.0384132 0.0811676 
-0.0596256 0.0366673 0.0805436 -0.0549897 0.0354642 0.0803149 -0.0508778 0.0344288 0.0801702 
-0.0475932 0.0336582 0.0801583 -0.0446903 0.0329444 0.0801349 -0.0424449 0.0323284 0.0800919 
-0.0404553 0.0317158 0.0799978 -0.0389473 0.0311093 0.0798075 -0.125321 0.00198961 0.255494 
-0.123256 0.00621926 0.21676 -0.114326 0.00978701 0.18739 -0.10175 0.0130031 0.162994 
-0.086783 0.0162253 0.145249 -0.0704286 0.019451 0.131364 -0.053847 0.0233049 0.122234 
-0.0371215 0.0275566 0.116115 -0.0223344 0.0330148 0.113983 -0.00888405 0.0393051 0.114601 
-0.00136298 0.0468717 0.118745 0.0017111 0.0553954 0.125533 -0.00466888 0.0634261 0.133101 
-0.0187522 0.071055 0.141304 -0.0381358 0.0749753 0.144632 -0.0622081 0.0756149 0.143647 
-0.0820819 0.0727377 0.137898 -0.097925 0.0664841 0.127574 -0.106439 0.0598502 0.11751 
-0.107317 0.0528198 0.107716 -0.104447 0.0468624 0.0998528 -0.0973392 0.0421179 0.0941737 
-0.0897176 0.0383295 0.0898797 -0.0814659 0.0357145 0.0872857 -0.0738377 0.0336546 0.0854046 
-0.0670412 0.0323347 0.0844742 -0.0609945 0.0312802 0.083845 -0.056035 0.0306105 0.0836524 
-0.0516745 0.0300408 0.0835426 -0.0482599 0.029629 0.0835632 -0.0452647 0.0292326 0.0835615 
-0.042992 0.0288629 0.0835211 -0.0409918 0.0284714 0.0834174 -0.0395047 0.028039 0.0831948 
-0.118451 -0.0237591 0.250282 -0.117486 -0.0161793 0.213135 -0.109326 -0.010065 0.184865 
-0.0973446 -0.00472929 0.161311 -0.0826191 -0.000153827 0.144212 -0.0663004 0.00398017 0.130861 
-0.0494135 0.00802431 0.122275 -0.0321668 0.0120115 0.116707 -0.0166367 0.0164855 0.115355 
-0.00229033 0.0212951 0.11691 0.0057959 0.0268034 0.122468 0.009187 0.0328358 0.131029 
0.00196546 0.0385383 0.140585 -0.0139034 0.043972 0.150951 -0.0358136 0.0469973 0.155364 
-0.0630683 0.047892 0.15451 -0.0853745 0.0465249 0.14788 -0.10293 0.0429866 0.135705 
-0.112119 0.0392578 0.124004 -0.112592 0.0353307 0.112796 -0.10903 0.0321115 0.103923 
-0.100905 0.0296926 0.0976909 -0.092386 0.0278627 0.0930411 -0.0833837 0.0267558 0.0903331 
-0.0751533 0.0259633 0.0884051 -0.0679524 0.0255898 0.0875168 -0.0615961 0.0253408 0.0869414 
-0.0564645 0.0252721 0.0868198 -0.0519832 0.0252225 0.0867717 -0.0485287 0.0252031 0.0868397 
-0.0455183 0.0251522 0.0868703 -0.0432728 0.0250471 0.0868365 -0.0413093 0.0248927 0.0867252 
-0.0398766 0.0246455 0.0864684 -0.10744 -0.0466558 0.238905 -0.108235 -0.036567 0.205111 
-0.101561 -0.0285418 0.179115 -0.0909176 -0.0216128 0.157263 -0.07715 -0.0161337 0.141355 
-0.0615682 -0.0114965 0.128899 -0.0450784 -0.00771644 0.121025 -0.0280136 -0.00447933 0.116053 
-0.0124226 -0.00167345 0.115335 0.00215186 0.000835045 0.117552 0.0103919 0.00315352 0.124025 
0.0138812 0.00532949 0.13369 0.00617487 0.00731352 0.144514 -0.0106537 0.00914116 0.156282 
-0.0339194 0.0106057 0.161436 -0.0628795 0.0117491 0.160739 -0.0864605 0.0125884 0.153653 
-0.104878 0.0131359 0.140434 -0.114371 0.0136437 0.127863 -0.114569 0.0141103 0.115969 
-0.110614 0.0146521 0.106653 -0.101964 0.0152789 0.100254 -0.0930048 0.0159555 0.0955389 
-0.083666 0.0166935 0.0928923 -0.0751836 0.0174258 0.0910513 -0.067843 0.0181508 0.0902843 
-0.0613983 0.018826 0.0898244 -0.0562524 0.0194289 0.0898099 -0.0517833 0.0199561 0.0898517 
-0.0483829 0.020364 0.0899824 -0.0454376 0.0206877 0.0900566 -0.0432763 0.0208664 0.0900334 
-0.0413987 0.0209657 0.0899166 -0.0400552 0.0209155 0.0896237 -0.0955871 -0.0642585 0.224907 
-0.0981005 -0.0529647 0.194969 -0.0930642 -0.0439742 0.171636 -0.0840168 -0.0362074 0.151813 
-0.0715894 -0.0303521 0.137301 -0.0571993 -0.0256069 0.125873 -0.0416928 -0.022343 0.118709 
-0.0254794 -0.0200172 0.114244 -0.0106002 -0.0189263 0.113846 0.0033588 -0.0186869 0.116252 
0.0111562 -0.0194155 0.122759 0.0143324 -0.0208699 0.132341 0.00659986 -0.0223497 0.143016 
-0.0100214 -0.02385 0.154582 -0.0328998 -0.0238384 0.15974 -0.0613135 -0.0224893 0.15923 
-0.0844733 -0.0196506 0.152535 -0.102589 -0.0153819 0.139903 -0.111975 -0.010985 0.127886 
-0.112266 -0.00645474 0.11651 -0.108463 -0.00241425 0.10764 -0.100032 0.00107253 0.101603 
-0.0912816 0.00411215 0.0972101 -0.0821394 0.00660299 0.0948341 -0.0738411 0.00878824 0.0932364 
-0.0666681 0.010566 0.0926762 -0.0603859 0.0121291 0.0923976 -0.0553955 0.0133808 0.0925274 
-0.0510797 0.0144668 0.0926881 -0.0478289 0.0152914 0.0928979 -0.0450298 0.0159816 0.0930283 
-0.0430084 0.0164404 0.0930219 -0.0412648 0.0167911 0.092904 -0.040044 0.016938 0.0925762 
-0.0827812 -0.0758768 0.207946 -0.086966 -0.064852 0.182431 -0.0837415 -0.0559652 0.162201 
-0.0765805 -0.0482143 0.144778 -0.0659252 -0.0425793 0.131894 -0.0532409 -0.0381729 0.121645 
-0.0393805 -0.0357099 0.115187 -0.0247754 -0.0344778 0.111129 -0.0114813 -0.0351548 0.110694 
0.000908529 -0.0371486 0.112756 0.00758896 -0.0407626 0.118302 0.00998732 -0.045592 0.126461 
0.0027468 -0.0502476 0.135385 -0.0123476 -0.0547616 0.144933 -0.0328688 -0.0560811 0.149261 
-0.0581906 -0.0545748 0.148973 -0.0790121 -0.0499707 0.143627 -0.0955133 -0.0423928 0.133426 
-0.104324 -0.0344999 0.123571 -0.105124 -0.026279 0.114076 -0.102089 -0.0190363 0.106656 
-0.0947181 -0.0128995 0.101582 -0.0869109 -0.00765919 0.0979468 -0.078568 -0.00351931 0.096078 
-0.070947 3.73856e-05 0.0949001 -0.0642884 0.00281647 0.0946435 -0.0584526 0.00522641 0.0946206 
-0.0538097 0.00710109 0.0949367 -0.0498066 0.00872555 0.0952493 -0.0468136 0.00995491 0.0955566 
-0.044252 0.0110026 0.0957574 -0.0424337 0.0117373 0.0957749 -0.0408783 0.0123365 0.095661 
-0.0398182 0.0126807 0.0952996 -0.0718586 -0.0829757 0.191429 -0.0771468 -0.0730656 0.169888 
-0.0753968 -0.0649123 0.152518 -0.0699077 -0.0576922 0.137362 -0.0609766 -0.0525895 0.126026 
-0.0500468 -0.0487162 0.116907 -0.0379801 -0.047033 0.111087 -0.0251933 -0.046737 0.107357 
-0.0136987 -0.048736 0.106748 -0.00309531 -0.0523179 0.108291 0.00239949 -0.0578302 0.112661 
0.00406284 -0.0647903 0.119151 -0.00240773 -0.0713543 0.126141 -0.0155059 -0.0775957 0.133539 
-0.0330861 -0.0796753 0.136974 -0.054631 -0.0780733 0.136904 -0.0725366 -0.0724452 0.132973 
-0.0869482 -0.0629518 0.125334 -0.0949147 -0.0529364 0.117829 -0.0961674 -0.0423771 0.110463 
-0.0939663 -0.0330248 0.104711 -0.0878607 -0.0250367 0.100785 -0.0812129 -0.0182156 0.0980549 
-0.0738997 -0.0128268 0.0967917 -0.0671591 -0.00821062 0.0961103 -0.0611821 -0.00462455 0.0962048 
-0.0559344 -0.00152165 0.0964754 -0.0517444 0.000880624 0.0970015 -0.0481435 0.00296683 0.0974855 
-0.0454726 0.00455397 0.0979029 -0.0432041 0.00592108 0.0981849 -0.0416285 0.00690925 0.0982338 
-0.0402963 0.00773893 0.0981302 -0.0394221 0.00827026 0.0977396 -0.0632473 -0.0845281 0.175457 
-0.0689418 -0.0767706 0.157338 -0.0682525 -0.0701235 0.142528 -0.0641718 -0.0640663 0.129478 
-0.0569061 -0.0598788 0.119592 -0.047791 -0.0567769 0.111544 -0.0376989 -0.0558476 0.106279 
-0.0269881 -0.0562945 0.102776 -0.017556 -0.0590682 0.101827 -0.0090058 -0.0634467 0.102637 
-0.00478088 -0.0696454 0.105568 -0.00379995 -0.0772093 0.11009 -0.0091595 -0.0841264 0.114921 
-0.0196854 -0.0905165 0.120004 -0.033608 -0.0926553 0.122466 -0.0505356 -0.0910333 0.122611 
-0.0648162 -0.0852909 0.120175 -0.0765557 -0.0755927 0.11526 -0.0833471 -0.0651403 0.110337 
-0.0849841 -0.0539023 0.105402 -0.0836986 -0.043781 0.101587 -0.0791092 -0.0349222 0.0990378 
-0.0738861 -0.0272811 0.0973917 -0.0678851 -0.0211344 0.0968546 -0.0622743 -0.0158415 0.0967638 
-0.0571837 -0.0116869 0.0972678 -0.0526984 -0.00807996 0.0978784 -0.0490907 -0.00526718 0.0986435 
-0.0460017 -0.00281328 0.0993226 -0.0437319 -0.00092604 0.0998658 -0.0418244 0.000713905 0.100242 
-0.0405406 0.00192796 0.100332 -0.0394742 0.0029658 0.100246 -0.0388172 0.00367194 0.0998319 
-0.0572531 -0.0839837 0.161089 -0.0627498 -0.0784516 0.145747 -0.0626589 -0.0733973 0.133085 
-0.0595995 -0.068597 0.121846 -0.0537136 -0.0653496 0.113229 -0.0461864 -0.0630039 0.106136 
-0.037865 -0.062688 0.101367 -0.0290406 -0.0636578 0.098071 -0.0214356 -0.0668211 0.09683 
-0.0146715 -0.0714972 0.0970061 -0.0114667 -0.0777547 0.098741 -0.0109315 -0.0851982 0.101645 
-0.0151733 -0.0918245 0.104757 -0.0233075 -0.0977849 0.10804 -0.0339241 -0.0997368 0.109761 
-0.0467365 -0.098143 0.110099 -0.0577253 -0.0926531 0.108872 -0.0669634 -0.0834229 0.106141 
-0.0725532 -0.0732797 0.103341 -0.0743424 -0.0621854 0.10047 -0.0737418 -0.0520218 0.0983364 
-0.0704394 -0.0429103 0.0970378 -0.0664741 -0.034958 0.0963946 -0.0616951 -0.0284281 0.0965556 
-0.0571579 -0.0227619 0.0970381 -0.0529433 -0.0182473 0.0979492 -0.0492199 -0.0143056 0.0988999 
-0.0462088 -0.0111948 0.0999079 -0.0436476 -0.00846515 0.100787 -0.0417966 -0.00633731 0.101462 
-0.0402669 -0.00447343 0.10194 -0.0392905 -0.00306417 0.102077 -0.0385049 -0.00184362 0.102017 
-0.0380782 -0.000978311 0.101585 -0.0547485 -0.0806436 0.148859 -0.0592419 -0.0774338 0.135435 
-0.0591328 -0.074088 0.124367 -0.0565786 -0.0706698 0.114551 -0.0516917 -0.0683958 0.106963 
-0.0454503 -0.066786 0.100668 -0.0386276 -0.0668961 0.0963176 -0.0314367 -0.0680954 0.0931984 
-0.0253448 -0.0711348 0.0917321 -0.0200108 -0.0754432 0.0914057 -0.0174932 -0.0809226 0.0922684 
-0.017088 -0.0872803 0.0940229 -0.0202031 -0.0927572 0.0960046 -0.0261867 -0.0975164 0.0981716 
-0.0339655 -0.0989535 0.099457 -0.0433324 -0.0974519 0.0999626 -0.0514736 -0.0927038 0.0995629 
-0.0584382 -0.084839 0.0982943 -0.0627909 -0.0759999 0.0970093 -0.064423 -0.0661457 0.0957071 
-0.0641996 -0.0569084 0.0949156 -0.0618786 -0.0483685 0.0947013 -0.0589486 -0.0407834 0.0949521 
-0.0552711 -0.03437 0.0957738 -0.0517328 -0.0287351 0.0968067 -0.04838 -0.0241384 0.0981215 
-0.0454181 -0.0200877 0.0994124 -0.043023 -0.0168289 0.100669 -0.0410104 -0.013946 0.101754 
-0.0396018 -0.0116569 0.10257 -0.0384725 -0.00963429 0.103157 -0.0378244 -0.00807071 0.103352 
-0.0373392 -0.00670141 0.103326 -0.0371605 -0.00569779 0.102887 -0.0539793 -0.0772492 0.138024 
-0.0571738 -0.0759398 0.126097 -0.056762 -0.0740288 0.116324 -0.0544342 -0.0717982 0.107696 
-0.0502828 -0.0703495 0.100987 -0.0450726 -0.0693549 0.0953913 -0.0394846 -0.0697667 0.0914219 
-0.0336574 -0.0710694 0.0884823 -0.0288011 -0.0738592 0.0868668 -0.0246146 -0.0776744 0.0861645 
-0.0225976 -0.0823029 0.0863695 -0.0222076 -0.0875413 0.0872548 -0.0243147 -0.0919024 0.0883951 
-0.0284564 -0.0955487 0.089743 -0.0338445 -0.0965292 0.0907213 -0.0403351 -0.0951514 0.0913726 
-0.0460636 -0.0911503 0.0916196 -0.0510604 -0.0846307 0.0914785 -0.0542817 -0.0771373 0.0913823 
-0.0556537 -0.0686293 0.0913326 -0.05564 -0.0604668 0.091633 -0.05406 -0.0526948 0.0923291 
-0.0519517 -0.0456675 0.0933434 -0.049195 -0.0395542 0.0947482 -0.0465103 -0.0341122 0.0962737 
-0.0439215 -0.0295653 0.0979601 -0.0416443 -0.0255178 0.0995677 -0.039819 -0.0221944 0.101061 
-0.0383193 -0.0192284 0.102347 -0.0373337 -0.0168269 0.103303 -0.0365906 -0.0146865 0.104002 
-0.0362652 -0.0129957 0.104259 -0.0360775 -0.0115006 0.104274 -0.0361491 -0.0103738 0.103834 
-0.0557267 -0.0737758 0.129212 -0.0571938 -0.0737551 0.11817 -0.0560663 -0.0728824 0.109259 
-0.0535605 -0.0715572 0.10148 -0.0497626 -0.0707194 0.0954325 -0.0452144 -0.0701646 0.0903907 
-0.0404785 -0.0706982 0.0867486 -0.0356236 -0.0719212 0.0839931 -0.0316009 -0.0742789 0.0823389 
-0.0281521 -0.0774191 0.0814442 -0.0263649 -0.0810911 0.0813022 -0.0258239 -0.0851619 0.0817249 