# vtk DataFile Version 2.0
vtk output
ASCII
DATASET RECTILINEAR_GRID
DIMENSIONS 34 34 34
X_COORDINATES 34 float
-10 -9.79798 -9.59596 -9.39394 -9.19192 -8.9899 -8.78788 -8.58586 -8.38384 
-8.18182 -7.9798 -7.77778 -7.57576 -7.37374 -7.17172 -6.9697 -6.76768 -6.56566 
-6.36364 -6.16162 -5.9596 -5.75758 -5.55556 -5.35354 -5.15152 -4.9495 -4.74747 
-4.54545 -4.34343 -4.14141 -3.93939 -3.73737 -3.53535 -3.33333 
Y_COORDINATES 34 float
3.33333 3.53535 3.73737 3.93939 4.14141 4.34343 4.54545 4.74747 4.94949 
5.15152 5.35354 5.55556 5.75758 5.9596 6.16162 6.36364 6.56566 6.76768 
6.9697 7.17172 7.37374 7.57576 7.77778 7.9798 8.18182 8.38384 8.58586 
8.78788 8.9899 9.19192 9.39394 9.59596 9.79798 10 
Z_COORDINATES 34 float
-10 -9.79798 -9.59596 -9.39394 -9.19192 -8.9899 -8.78788 -8.58586 -8.38384 
-8.18182 -7.9798 -7.77778 -7.57576 -7.37374 -7.17172 -6.9697 -6.76768 -6.56566 
-6.36364 -6.16162 -5.9596 -5.75758 -5.55556 -5.35354 -5.15152 -4.9495 -4.74747 
-4.54545 -4.34343 -4.14141 -3.93939 -3.73737 -3.53535 -3.33333 
POINT_DATA 39304
VECTORS grad float
0.0288055 -0.0203156 0.0220323 0.0297449 -0.0190975 0.0198947 0.0306843 -0.0178793 0.0177571 
0.0337485 -0.0156894 0.0156405 0.036857 -0.0134794 0.0135243 0.0428593 -0.00996483 0.0122401 
0.0489848 -0.00639482 0.0109912 0.0590394 -0.00128828 0.0119073 0.0693503 0.00391845 0.0129646 
0.0845332 0.0104184 0.0180814 0.100149 0.0170333 0.023559 0.120853 0.0235598 0.0355779 
0.142134 0.0300763 0.0483401 0.166244 0.0332979 0.0706977 0.190749 0.0360598 0.0943942 
0.210549 0.0309954 0.130157 0.229565 0.0246267 0.167931 0.231316 0.00836757 0.21441 
0.229699 -0.00982138 0.262589 0.203488 -0.0320869 0.302405 0.171744 -0.0552696 0.34034 
0.125808 -0.0721158 0.349074 0.0762334 -0.0873372 0.35032 0.0326089 -0.0931131 0.326396 
-0.00929342 -0.0961547 0.295184 -0.0356751 -0.0944361 0.259441 -0.0570231 -0.0911736 0.222229 
-0.066684 -0.0872274 0.191453 -0.0721246 -0.0830343 0.163001 -0.0725008 -0.0793594 0.141627 
-0.0708511 -0.0758916 0.123084 -0.0679222 -0.0729662 0.10941 -0.064429 -0.0702801 0.0978845 
-0.0609734 -0.0680671 0.0893132 0.0299399 -0.0185573 0.0187395 0.0310974 -0.0175751 0.0162751 
0.0322549 -0.0165929 0.0138107 0.0358208 -0.0149485 0.011315 0.0394367 -0.0132903 0.00881868 
0.046048 -0.0108231 0.00713893 0.0527866 -0.00832151 0.00549393 0.0633825 -0.00504323 0.00605357 
0.0742298 -0.00171431 0.00675699 0.0894409 0.0018202 0.0115353 0.10504 0.00537296 0.0166759 
0.124486 0.00749712 0.0280457 0.144369 0.00945893 0.0401235 0.165189 0.00700597 0.0605625 
0.18614 0.003937 0.0821682 0.201058 -0.00683645 0.113089 0.21497 -0.018894 0.145562 
0.213062 -0.0386406 0.183368 0.208067 -0.0598876 0.222215 0.182844 -0.0817836 0.253277 
0.153071 -0.103826 0.282587 0.112308 -0.116928 0.290016 0.0687281 -0.127737 0.291834 
0.0302283 -0.128107 0.274546 -0.00680094 -0.125455 0.251727 -0.0308659 -0.118245 0.224213 
-0.0507264 -0.109557 0.195175 -0.0603226 -0.101061 0.170249 -0.0662124 -0.0926348 0.146808 
-0.0672868 -0.0857568 0.128767 -0.066435 -0.0794981 0.112887 -0.0641982 -0.0746246 0.101023 
-0.0613504 -0.0703622 0.0909321 -0.0584528 -0.0671293 0.0833941 0.0307254 -0.0166488 0.0158124 
0.0319911 -0.0158575 0.013008 0.0332567 -0.0150662 0.0102036 0.0370416 -0.0138855 0.00727178 
0.040879 -0.0126968 0.00433728 0.047664 -0.0111178 0.00213455 0.0545743 -0.00952225 -3.70448e-05 
0.0650934 -0.00773946 -6.2997e-05 0.0758479 -0.00594447 5.09906e-05 0.0903272 -0.00466576 0.0041244 
0.105138 -0.00343295 0.00854975 0.122656 -0.00428496 0.0187421 0.140483 -0.00537389 0.0295897 
0.157942 -0.0110055 0.0475172 0.17535 -0.017271 0.0664325 0.186427 -0.0302506 0.0923324 
0.196448 -0.0443493 0.119396 0.192818 -0.0640696 0.149579 0.186525 -0.0848868 0.180369 
0.164035 -0.104624 0.204598 0.137901 -0.124118 0.227349 0.103155 -0.134561 0.234037 
0.0662016 -0.142684 0.236605 0.0330359 -0.140916 0.22496 0.00096666 -0.136284 0.209199 
-0.0208886 -0.127217 0.189085 -0.0394312 -0.11671 0.167559 -0.0493615 -0.106413 0.148363 
-0.0561818 -0.0961899 0.130007 -0.0585497 -0.0877486 0.115483 -0.0591367 -0.0800199 0.102492 
-0.0581858 -0.0740299 0.0926129 -0.0565565 -0.0688068 0.0841057 -0.0546739 -0.0649315 0.0776898 
0.0314334 -0.0146174 0.013113 0.0327719 -0.013969 0.00999013 0.0341104 -0.0133207 0.00686732 
0.0380267 -0.0125239 0.00351667 0.0419966 -0.011724 0.000161283 0.0488315 -0.0109014 -0.00255934 
0.0557883 -0.0100778 -0.00525295 0.0660854 -0.00957322 -0.00588021 0.0766002 -0.00908942 -0.00637269 
0.0902314 -0.0097113 -0.00303857 0.10414 -0.0104315 0.00063569 0.119747 -0.0137055 0.00963497 
0.135548 -0.0172698 0.0192394 0.149917 -0.0253117 0.0347758 0.164086 -0.0339784 0.05114 
0.171844 -0.0483091 0.072497 0.178533 -0.0635837 0.094686 0.173658 -0.0826317 0.118219 
0.166526 -0.102416 0.142013 0.146798 -0.119824 0.160417 0.124236 -0.136698 0.177609 
0.0951258 -0.144803 0.183677 0.0643372 -0.150659 0.186894 0.0361652 -0.147406 0.180084 
0.00875045 -0.141516 0.170371 -0.010954 -0.131378 0.156726 -0.0281578 -0.119861 0.141807 
-0.0383341 -0.108476 0.127761 -0.0459726 -0.0971374 0.114032 -0.0495766 -0.0876587 0.102771 
-0.0515668 -0.0789238 0.0924983 -0.0519188 -0.0721509 0.0845093 -0.051548 -0.0662437 0.0775279 
-0.0507367 -0.0619221 0.0721992 0.0319656 -0.0123071 0.0109296 0.0332971 -0.0116932 0.0075372 
0.0346285 -0.0110792 0.00414478 0.038477 -0.0104852 0.00041467 0.042378 -0.0098915 -0.00332246 
0.0489826 -0.00952637 -0.00654943 0.0557022 -0.00917096 -0.00975467 0.0654475 -0.00945199 -0.0110189 
0.0753901 -0.00977452 -0.0121564 0.0879095 -0.0114918 -0.0096395 0.100658 -0.0133331 -0.0067977 
0.114391 -0.0177731 0.000973447 0.128236 -0.0225083 0.00930474 0.140129 -0.031219 0.0227235 
0.151748 -0.0404843 0.0368521 0.157371 -0.0542274 0.0547488 0.161994 -0.0687169 0.0732736 
0.156952 -0.0856284 0.0923651 0.150024 -0.103012 0.111567 0.133124 -0.117708 0.126436 
0.113981 -0.131798 0.140329 0.089643 -0.138287 0.146056 0.0639738 -0.142828 0.149689 
0.0400236 -0.139573 0.145885 0.0165709 -0.134062 0.139928 -0.00111636 -0.124636 0.130642 
-0.0169338 -0.113939 0.120276 -0.0271564 -0.103085 0.110074 -0.0353586 -0.0921741 0.0999324 
-0.0400685 -0.0828497 0.0913582 -0.0433815 -0.07416 0.0834111 -0.0450747 -0.0673609 0.0771011 
-0.0460531 -0.061396 0.0715133 -0.0464408 -0.0570731 0.0671927 0.0325305 -0.00988676 0.00901325 
0.0338386 -0.00925965 0.00539765 0.0351468 -0.00863255 0.00178207 0.0388872 -0.0081645 -0.00226824 
0.0426782 -0.00769978 -0.00632759 0.0489984 -0.0076736 -0.00999393 0.0554262 -0.00766607 -0.0136435 
0.0645699 -0.00855746 -0.0154815 0.0738906 -0.00950747 -0.0172014 0.0852959 -0.0120757 -0.0154495 
0.0968864 -0.0147877 -0.013389 0.108854 -0.0200843 -0.00677877 0.120863 -0.0256745 0.000348432 
0.130535 -0.0347299 0.0118151 0.13988 -0.0442688 0.0238872 0.143694 -0.0572005 0.0386993 
0.146587 -0.0706976 0.053968 0.141551 -0.0854634 0.0692035 0.134969 -0.100477 0.0844326 
0.120722 -0.112631 0.0962752 0.104751 -0.124142 0.107356 0.0847587 -0.129196 0.112773 
0.063736 -0.132594 0.116738 0.0436494 -0.129452 0.115474 0.0238338 -0.124417 0.112695 
0.00805879 -0.115823 0.107154 -0.00640584 -0.106074 0.100717 -0.0165979 -0.0959179 0.0938885 
-0.0252471 -0.085615 0.086918 -0.0309544 -0.0766271 0.0807559 -0.0354848 -0.0681651 0.0749171 
-0.0384571 -0.0615006 0.0701477 -0.040742 -0.0556291 0.06585 -0.042316 -0.0514333 0.062469 
0.0331769 -0.00719147 0.00776428 0.0344214 -0.0064321 0.00404163 0.0356659 -0.00567273 0.000318993 
0.039197 -0.005139 -0.00390338 0.0427757 -0.00460997 -0.00813614 0.0486763 -0.00462642 -0.0120744 
0.0546756 -0.0046661 -0.0160002 0.0630929 -0.00572966 -0.0182542 0.0716678 -0.00686 -0.0203992 
0.081953 -0.00966777 -0.019282 0.0923903 -0.0126246 -0.0178748 0.102862 -0.0180044 -0.0122576 
0.113338 -0.0236596 -0.00616197 0.121429 -0.0322499 0.00376661 0.129188 -0.0412498 0.01423 
0.132011 -0.05281 0.0268963 0.134011 -0.0647968 0.0399298 0.129416 -0.0773944 0.0527723 
0.123534 -0.0901111 0.0655775 0.111501 -0.100156 0.0756676 0.0980839 -0.109599 0.0851468 
0.0813707 -0.113666 0.090337 0.0638123 -0.116354 0.0944275 0.0466938 -0.113611 0.0945346 
0.0297027 -0.109295 0.0934887 0.0155776 -0.101833 0.0901598 0.00238212 -0.0933505 0.0860906 
-0.00758761 -0.0843092 0.0814557 -0.0163925 -0.0750661 0.0766167 -0.0228254 -0.0668699 0.0721809 
-0.0283096 -0.0590926 0.0679063 -0.0324061 -0.0529645 0.0643312 -0.0358904 -0.047564 0.0610646 
-0.038619 -0.0438164 0.0584524 0.0339348 -0.00444445 0.00678217 0.0351126 -0.00352238 0.00300721 
0.0362904 -0.00260032 -0.000767744 0.0396028 -0.00195277 -0.00508804 0.0429596 -0.00131095 -0.00941968 
0.0484266 -0.00129805 -0.0135397 0.0539833 -0.0013119 -0.0176508 0.0616673 -0.00244702 -0.0202285 
0.06949 -0.00365526 -0.0227062 0.0786812 -0.00657666 -0.0221457 0.0879941 -0.00965034 -0.0213151 
0.0970602 -0.0149841 -0.0166219 0.106098 -0.0205747 -0.0114898 0.112763 -0.0286168 -0.00299721 
0.119097 -0.0370009 0.00596429 0.121085 -0.0472147 0.0166686 0.122348 -0.0577335 0.0276634 
0.118232 -0.0683136 0.0383618 0.113066 -0.0789057 0.0490022 0.103094 -0.0870289 0.0575316 
0.0920399 -0.0945965 0.065586 0.0783272 -0.0977647 0.0705407 0.0639328 -0.0998049 0.0747007 
0.0495425 -0.0974103 0.0759586 0.0351533 -0.0937319 0.0763763 0.022579 -0.0872954 0.0749484 
0.0105934 -0.0799644 0.072922 0.000864217 -0.0719578 0.0702059 -0.00805015 -0.0637074 0.0672409 
-0.015154 -0.0562795 0.064341 -0.0215336 -0.0491805 0.0614671 -0.0267185 -0.043615 0.0589707 
-0.0313763 -0.0387259 0.0566408 -0.0352524 -0.035487 0.0547295 0.0350015 -0.0015542 0.00653908 
0.0361042 -0.000385165 0.00286341 0.037207 0.000783868 -0.000812252 0.0402745 0.00167847 -0.00502519 
0.0433829 0.00256735 -0.0092493 0.0483776 0.00280903 -0.0133014 0.0534525 0.00302316 -0.0173461 
0.0603842 0.00209517 -0.0199919 0.067437 0.0010927 -0.0225464 0.0756064 -0.00159357 -0.0223264 
0.083875 -0.0044295 -0.0218598 0.091782 -0.00935923 -0.0178998 0.099648 -0.0145269 -0.0135427 
0.105315 -0.0217902 -0.00620333 0.110675 -0.0293459 0.00155219 0.112259 -0.0382832 0.0108033 
0.113213 -0.0474507 0.0203038 0.109684 -0.0564312 0.0295473 0.10528 -0.0653753 0.0387407 
0.0969426 -0.0720986 0.0462404 0.0877206 -0.0783222 0.053359 0.0762381 -0.0808367 0.0580554 
0.064176 -0.0824001 0.0621308 0.0518491 -0.0802171 0.0639271 0.0394456 -0.0769497 0.0650635 
0.0281473 -0.0712419 0.064675 0.0172076 -0.0647427 0.0637919 0.00776931 -0.0575499 0.0622323 
-0.00112672 -0.0501066 0.0604285 -0.00874965 -0.0433814 0.0585372 -0.0158633 -0.0369434 0.0566109 
-0.0220375 -0.032013 0.054873 -0.0277971 -0.0277476 0.0532183 -0.0328006 -0.0251846 0.0518201 
0.0362096 0.0013198 0.00651889 0.0372401 0.00274707 0.00298645 0.0382707 0.00417434 -0.000545983 
0.0410974 0.00533428 -0.00459365 0.0439616 0.00648865 -0.00865203 0.048487 0.0069871 -0.0125672 
0.053083 0.00745764 -0.0164762 0.0592705 0.00677601 -0.0191193 0.0655617 0.00601923 -0.0216797 
0.0727342 0.00361408 -0.0217385 0.079985 0.00106243 -0.0215749 0.0867861 -0.00342779 -0.0182954 
0.093536 -0.0081383 -0.0146617 0.0982791 -0.0146283 -0.00841622 0.102742 -0.0213666 -0.00180627 
0.103983 -0.0290999 0.00607428 0.104687 -0.0369991 0.0141666 0.10174 -0.0445094 0.0220508 
0.0980803 -0.0519438 0.0298944 0.0912858 -0.0573893 0.0364277 0.0837858 -0.0623873 0.0426663 
0.0743897 -0.064285 0.0470881 0.0645073 -0.0653876 0.0510441 0.0541205 -0.0633424 0.0532776 
0.0435875 -0.060386 0.0550126 0.0335051 -0.0552609 0.055518 0.0235689 -0.0494325 0.0556246 
0.0144098 -0.0428953 0.0550803 0.00553131 -0.0361022 0.054301 -0.00261727 -0.0299602 0.0533074 
-0.0104739 -0.0240785 0.0522282 -0.0176634 -0.0197337 0.0511707 -0.0245586 -0.016067 0.0501228 
-0.0307268 -0.0142039 0.0491835 0.037854 0.00414372 0.00718597 0.0388209 0.00586397 0.00393225 
0.0397879 0.0075842 0.000678534 0.0423868 0.00906583 -0.00302531 0.0450196 0.0105425 -0.00673851 
0.049085 0.0113841 -0.010304 0.0532113 0.0121987 -0.0138633 0.058679 0.0118843 -0.0162854 
0.0642341 0.0114964 -0.0186333 0.0704868 0.00951415 -0.0187803 0.0768015 0.00739023 -0.0187317 
0.08266 0.00344893 -0.0159706 0.0884667 -0.00069888 -0.0129012 0.0925163 -0.00643226 -0.00756659 
0.0963208 -0.0123869 -0.00191597 0.0974055 -0.0191403 0.00484865 0.0980369 -0.0260269 0.0117989 
0.0956579 -0.0324657 0.0186182 0.0926914 -0.038817 0.0254118 0.0871534 -0.0433612 0.0311741 
0.0810368 -0.0474987 0.0367042 0.0732836 -0.0488935 0.0408011 0.0651106 -0.049585 0.0445304 
0.0562831 -0.0474497 0.0468897 0.0472659 -0.0444961 0.0488523 0.0382139 -0.0395033 0.0498032 
0.0291506 -0.033849 0.050426 0.0202342 -0.0274804 0.0504616 0.011371 -0.0208537 0.0502851 
0.00267653 -0.0149259 0.0498476 -0.00595042 -0.00927761 0.0493058 -0.0142359 -0.00536602 0.0486876 
-0.0223707 -0.00222063 0.0480356 -0.0298185 -0.00113149 0.0473878 0.0396345 0.00690227 0.00800895 
0.0405418 0.00891586 0.00505848 0.0414492 0.0109295 0.00210801 0.0438277 0.0127354 -0.00122308 
0.0462369 0.0145369 -0.00456208 0.04985 0.0157274 -0.00774661 0.0535144 0.0168919 -0.0109246 
0.0582732 0.0169537 -0.0130934 0.0631034 0.0169436 -0.0151964 0.0684549 0.0153926 -0.0153977 
0.0738527 0.0137047 -0.01543 0.0787963 0.0103094 -0.0131485 0.0836882 0.00672003 -0.0106041 
0.0870744 0.00171346 -0.00613458 0.0902504 -0.00349086 -0.00139648 0.0911954 -0.00933029 0.00430338 
0.0917687 -0.0152756 0.0101635 0.0899443 -0.0207325 0.0159646 0.087652 -0.0260941 0.021754 
0.0833262 -0.029814 0.0267708 0.0785429 -0.0331644 0.0316137 0.0723793 -0.0340783 0.0353763 
0.0658618 -0.0343675 0.0388619 0.0585613 -0.0320854 0.0413028 0.0510341 -0.029059 0.0434414 
0.0430076 -0.0240654 0.0447745 0.0348193 -0.0184338 0.0458464 0.026137 -0.0120505 0.0463976 
0.0172764 -0.00539564 0.0467608 0.00798138 0.000494211 0.0468243 -0.00148742 0.00607807 0.046768 
-0.0109726 0.00964989 0.0465426 -0.020465 0.012334 0.0462426 -0.0292983 0.0126287 0.0458451 
0.0418849 0.00943495 0.0093705 0.0427466 0.0117432 0.00680802 0.0436082 0.0140515 0.00424555 
0.0457925 0.0161907 0.00138713 0.0480044 0.0183263 -0.00147744 0.0511919 0.0198853 -0.00417252 
0.0544209 0.0214198 -0.00686038 0.0585089 0.0218884 -0.00866436 0.0626529 0.0222875 -0.0104107 
0.0671674 0.0211965 -0.0105488 0.0717149 0.0199731 -0.010544 0.0758388 0.0171135 -0.00860849 
0.0799147 0.0140681 -0.00645357 0.0827408 0.00968539 -0.00269066 0.0853925 0.00511606 0.00129663 
0.0862549 -3.68108e-05 0.00610845 0.0868191 -0.00528694 0.0110577 0.085503 -0.010072 0.016002 
0.0838201 -0.0147664 0.0209454 0.0805532 -0.0179281 0.0253054 0.0769299 -0.020745 0.0295341 
0.0721722 -0.0212539 0.0329302 0.0671237 -0.021171 0.0361128 0.0612389 -0.0185462 0.0384836 
0.0551121 -0.0151857 0.0406194 0.0480948 -0.00973227 0.0421158 0.0407887 -0.00360011 0.0434048 
0.0323105 0.00343087 0.0442499 0.0234089 0.0107864 0.0449347 0.0133244 0.0172473 0.0453088 
0.00276665 0.0233504 0.0455587 -0.00827645 0.0269052 0.0455658 -0.0195337 0.0293358 0.0454657 
-0.0301182 0.028765 0.045176 0.0442547 0.0118794 0.0108254 0.0450751 0.0144814 0.00865996 
0.0458954 0.0170834 0.00649452 0.0478938 0.0195574 0.00411653 0.0499167 0.0220288 0.00173412 
0.052687 0.0239607 -0.000465205 0.055489 0.0258695 -0.00265673 0.0589152 0.0267496 -0.00408785 
0.0623821 0.0275626 -0.00546938 0.0660696 0.026931 -0.00552829 0.0697767 0.0261711 -0.00546964 
0.0730899 0.0238332 -0.00385162 0.0763585 0.021316 -0.00205641 0.0786287 0.0175211 0.00103806 
0.0807596 0.0135479 0.00431381 0.0815345 0.009022 0.00827685 0.0820833 0.00440399 0.0123544 
0.0812612 0.000217157 0.0164731 0.0801715 -0.00388554 0.0205997 0.0779487 -0.00655702 0.0243187 
0.0754708 -0.00890647 0.027946 0.0721227 -0.00904965 0.0309735 0.0685515 -0.00862713 0.0338471 
0.064123 -0.0056487 0.0361315 0.0594463 -0.00193039 0.0382452 0.0535054 0.00406849 0.0398838 
0.0471545 0.010807 0.0413683 0.0389108 0.0186629 0.0424902 0.0299836 0.0269224 0.0434812 
0.0190212 0.0341754 0.0441524 0.00724484 0.0410259 0.0446955 -0.00555962 0.0446918 0.0449135 
-0.0188176 0.0469527 0.0449879 -0.0313535 0.0454794 0.0447707 0.0470899 0.01398 0.0126445 
0.047886 0.0168717 0.0109113 0.048682 0.0197634 0.00917811 0.0505272 0.0225791 0.00731077 
0.0523942 0.0253931 0.00544065 0.0547796 0.0277143 0.00376167 0.0571871 0.0300145 0.00209084 
0.0599867 0.0313241 0.00106379 0.062812 0.032569 7.87284e-05 0.0657111 0.032395 0.000161603 
0.0686167 0.0320949 0.000339408 0.0711544 0.0302233 0.00175098 0.0736502 0.0281732 0.00330275 
0.0753805 0.0248256 0.00587747 0.0770041 0.0212969 0.00859491 0.077672 0.0171656 0.0118623 
0.0781807 0.0129339 0.0152213 0.0777967 0.00905849 0.0186353 0.0772385 0.00525261 0.0220601 
0.0760015 0.00280668 0.0251996 0.0746118 0.000666738 0.0282749 0.0726876 0.000735914 0.0309253 
0.0706264 0.00137153 0.0334668 0.0678121 0.00474653 0.0356012 0.0647798 0.00891451 0.0376177 
0.0601775 0.0157929 0.0393161 0.055066 0.0235504 0.0409114 0.047176 0.0329229 0.0422437 
0.0382827 0.0428786 0.0434812 0.0260982 0.0517858 0.044396 0.0125971 0.0602737 0.0451819 
-0.00276211 0.0645503 0.0455267 -0.0189412 0.0669691 0.0456771 -0.0342093 0.0644487 0.0453936 
0.0500328 0.0159857 0.0145144 0.0508103 0.0191693 0.0132162 0.0515879 0.0223529 0.0119179 
0.0532907 0.025518 0.0105626 0.0550128 0.0286826 0.0092062 0.0570224 0.0314061 0.00804871 
0.0590443 0.0341109 0.00689968 0.0612221 0.0358637 0.00628101 0.0634101 0.0375543 0.00569693 
0.0655188 0.0378434 0.00593363 0.0676205 0.0380078 0.0062433 0.0693725 0.0365897 0.00746979 
0.0710848 0.0349917 0.00880047 0.0722583 0.0320538 0.010882 0.0733565 0.028929 0.0130684 
0.0738967 0.0251318 0.0156647 0.0743438 0.0212226 0.0183294 0.0743792 0.0175836 0.0210556 
0.0743342 0.0139974 0.0237939 0.074078 0.0116974 0.0263606 0.0737742 0.00968672 0.0288886 
0.0733027 0.00989056 0.0311599 0.0727881 0.0106622 0.0333654 0.0716762 0.014365 0.035344 
0.0703914 0.0189164 0.0372569 0.0672763 0.0266403 0.0390159 0.0635676 0.0353932 0.040725 
0.0561481 0.0463429 0.042286 0.0473885 0.0580859 0.0437936 0.0338918 0.0688197 0.0449809 
0.0185004 0.0791498 0.0460402 0.000266383 0.084168 0.0465143 -0.0192217 0.0868427 0.0467302 
-0.0375314 0.0832595 0.0463371 0.0534541 0.0175701 0.0166107 0.0542389 0.021055 0.0157592 
0.0550236 0.02454 0.0149077 0.0566327 0.0280892 0.0140708 0.058259 0.0316398 0.0132342 
0.0599329 0.0348236 0.0126032 0.0616088 0.0379917 0.011981 0.0631856 0.0402485 0.0117898 
0.0647559 0.0424459 0.0116268 0.0660654 0.0432225 0.0120708 0.0673518 0.0438728 0.0125689 
0.0682741 0.0428506 0.0137052 0.0691549 0.0416383 0.0149141 0.0696956 0.0389432 0.0166208 
0.0701888 0.0360413 0.018397 0.0705081 0.0323096 0.0204318 0.0707985 0.0284395 0.0225098 
0.0711702 0.0247038 0.0246231 0.0715577 0.0209943 0.0267433 0.0722596 0.018486 0.0287668 
0.0730322 0.0162481 0.0307687 0.0741406 0.0162413 0.0326512 0.0753351 0.0168065 0.0345031 
0.0763178 0.0205317 0.0363003 0.0772392 0.0251716 0.0380817 0.076272 0.03359 0.0399047 
0.0746922 0.0432338 0.0417412 0.0682617 0.0560301 0.0436118 0.0600796 0.0699649 0.0454946 
0.0448713 0.0832915 0.0470822 0.0268524 0.0963749 0.0485517 0.00432156 0.102716 0.0491652 
-0.0201999 0.106082 0.0494011 -0.0429262 0.101366 0.0487053 0.0569785 0.0190543 0.0187359 
0.0577791 0.0228445 0.0183349 0.0585797 0.0266347 0.017934 0.0601117 0.030581 0.0176217 
0.0616588 0.0345305 0.0173111 0.0630089 0.0381967 0.0172166 0.0643507 0.0418508 0.0171312 
0.0653269 0.0446378 0.0173826 0.0662792 0.0473682 0.0176559 0.0667735 0.04865 0.0183262 
0.0672271 0.049803 0.0190317 0.0672879 0.0491712 0.0200965 0.067304 0.0483366 0.0212021 
0.0671721 0.0458479 0.022547 0.0670196 0.0431285 0.0239252 0.0670802 0.0393991 0.0254032 
0.0671763 0.0355014 0.0268979 0.0678553 0.0315897 0.0283952 0.068648 0.0276753 0.0298931 
0.0702934 0.0248687 0.0313654 0.0721307 0.0223112 0.032832 0.0748319 0.0219831 0.0343151 
0.0777546 0.0222266 0.0358024 0.080904 0.0258176 0.0374095 0.084119 0.0303775 0.0390513 
0.0854706 0.0392588 0.0409414 0.0862179 0.0495416 0.0429121 0.0809872 0.0638991 0.0451277 
0.0735979 0.0797281 0.0474317 0.0566697 0.0954359 0.0494887 0.0359259 0.111095 0.0514468 
0.00876728 0.118745 0.0522259 -0.0212215 0.12286 0.0524849 -0.0486824 0.11722 0.051423 
0.0610314 0.0200253 0.0210095 0.0618924 0.0241407 0.0210788 0.0627533 0.028256 0.0211481 
0.0642925 0.0326651 0.0213916 0.0658457 0.0370803 0.0216386 0.0669334 0.0413424 0.0221317 
0.0680013 0.045598 0.0226353 0.0683794 0.0490492 0.0234059 0.0687125 0.052448 0.0241939 
0.0683092 0.0543258 0.025187 0.0678404 0.0560684 0.0261984 0.0668771 0.0557986 0.0272866 
0.0658576 0.0553002 0.0283836 0.0648495 0.0528312 0.0294333 0.0638431 0.0500872 0.0304763 
0.0634505 0.0460371 0.0314215 0.0631603 0.0417694 0.0323504 0.0639979 0.0372758 0.0332165 
0.0650557 0.0327382 0.0340704 0.0675701 0.0291704 0.0349496 0.0704124 0.0258207 0.0358345 
0.074772 0.0246046 0.0368641 0.0795206 0.0239356 0.0379308 0.0852061 0.0265896 0.0393026 
0.0911628 0.0302055 0.0407626 0.0957098 0.0383632 0.0427359 0.0997997 0.047994 0.0448756 
0.096849 0.06245 0.0476182 0.0913559 0.0786484 0.0505785 0.072666 0.0956521 0.0534592 
0.0486973 0.112978 0.056308 0.0152147 0.121865 0.0573869 -0.0224651 0.127029 0.057685 
-0.0562902 0.121531 0.0559325 0.0651818 0.0208831 0.0233022 0.0661156 0.0253239 0.02385 
0.0670493 0.0297647 0.0243978 0.0686203 0.0346473 0.025213 0.0702046 0.039539 0.0260338 
0.0710488 0.0444216 0.0271409 0.0718615 0.0493037 0.0282601 0.0716413 0.0534544 0.0295854 
0.0713537 0.0575573 0.0309241 0.070023 0.0600618 0.0322757 0.0685997 0.0624242 0.0336285 
0.0665564 0.062521 0.0347619 0.0644427 0.0623603 0.0358704 0.062494 0.0598777 0.0366238 
0.0605683 0.0570711 0.0373275 0.0596681 0.0526378 0.0377192 0.0589388 0.0479334 0.0380588 
0.0598961 0.0427836 0.0382646 0.0611824 0.0375468 0.0384443 0.0645339 0.0331379 0.0387022 
0.06835 0.0289154 0.0389778 0.074331 0.0267097 0.0395296 0.0808671 0.0250212 0.0401522 
0.0890496 0.0265662 0.0412666 0.0977088 0.0290473 0.0425232 0.105452 0.0361455 0.0445583 
0.112899 0.0447411 0.0468458 0.112337 0.0586871 0.050104 0.108883 0.0745651 0.0537126 
0.0886024 0.092108 0.057434 0.0615911 0.110317 0.0612007 0.0219092 0.120168 0.0625865 
-0.0233627 0.126332 0.0629219 -0.0634715 0.121532 0.0604452 0.0699171 0.0210617 0.0257096 
0.0709985 0.0258294 0.0267856 0.0720799 0.0305972 0.0278615 0.0738308 0.0360174 0.029344 
0.0755955 0.0414512 0.030835 0.0763098 0.0471016 0.0327141 0.0769793 0.0527611 0.0346097 
0.0761592 0.0578217 0.0367023 0.075242 0.0628432 0.0388077 0.0728061 0.0661584 0.0407317 
0.0702352 0.0693219 0.0426395 0.0667769 0.0698126 0.0439487 0.0632177 0.0699997 0.0451898 
0.0599412 0.0673041 0.0456397 0.0567042 0.0642064 0.0459792 0.0549692 0.0590149 0.0456929 
0.0534845 0.0534745 0.0453024 0.0543271 0.0472215 0.0446733 0.0556237 0.0408295 0.0439977 
0.0596195 0.0351006 0.0434654 0.0642226 0.0295209 0.0429653 0.0716037 0.0257162 0.0428936 
0.0796972 0.0223667 0.0429318 0.0901423 0.0217709 0.0436564 0.101268 0.0219723 0.0445796 
0.112215 0.0259946 0.0465486 0.123104 0.0312562 0.0488567 0.125583 0.0410418 0.0525616 
0.125025 0.052461 0.0567709 0.10418 0.0660019 0.0614352 0.0752202 0.0803914 0.0662815 
0.0300862 0.0895693 0.068017 -0.0221834 0.096448 0.06838 -0.0680943 0.095681 0.0649765 
0.0747306 0.0211076 0.0281283 0.0759753 0.0261921 0.0297442 0.07722 0.0312766 0.0313601 
0.0791842 0.037232 0.0335354 0.0811632 0.0432056 0.0357223 0.0817777 0.0496364 0.038419 
0.0823341 0.0560866 0.0411373 0.08092 0.0620878 0.044062 0.0793773 0.0680597 0.0470001 
0.0757976 0.0722214 0.0495621 0.0720369 0.0762223 0.0520906 0.0670841 0.0771196 0.0536092 
0.0619958 0.0776643 0.055013 0.0573034 0.0747283 0.0551417 0.0526662 0.0713067 0.0550923 
0.0500317 0.0653039 0.0540729 0.047731 0.058871 0.0528918 0.0484217 0.0514628 0.0513655 
0.049696 0.0438642 0.0497719 0.0543014 0.0367749 0.0483989 0.0596562 0.0298002 0.0470756 
0.0683665 0.024358 0.0463438 0.0779372 0.0193086 0.0457636 0.0904942 0.0165063 0.0460653 
0.103916 0.0143544 0.0466222 0.117813 0.015154 0.0484752 0.131866 0.0169108 0.0507484 
0.137178 0.0222301 0.0547979 0.139334 0.0288359 0.059489 0.118214 0.0379413 0.0649343 
0.0877822 0.0480464 0.0706814 0.0380872 0.0563574 0.0726839 -0.0201063 0.0638768 0.0730344 
-0.0710874 0.0674303 0.0687906 0.0801046 0.0202024 0.0306273 0.0816248 0.0255308 0.0328684 
0.0831449 0.0308592 0.0351095 0.0855619 0.0373319 0.03816 0.0879976 0.0438284 0.0412273 
0.0887291 0.0511305 0.0450677 0.0893882 0.0584668 0.0489409 0.0874213 0.0656287 0.053162 
0.0852831 0.0727792 0.0574057 0.0802835 0.0780442 0.0610762 0.0750296 0.0831416 0.0646958 
0.0680136 0.0845363 0.0666651 0.0607973 0.0855101 0.0684469 0.0540562 0.0821367 0.0681264 
0.0473813 0.0781566 0.0675126 0.043384 0.070962 0.0653642 0.0398329 0.0632316 0.0629601 
0.0401051 0.054294 0.0600895 0.0411233 0.0451209 0.0571278 0.0460892 0.0363826 0.0545531 
0.0519432 0.0277421 0.0520654 0.0614744 0.0203856 0.0504104 0.0719484 0.0133584 0.048969 
0.0855369 0.00787865 0.0486109 0.100027 0.0028469 0.0485665 0.115065 -0.000629346 0.0499452 
0.130281 -0.0036011 0.0517856 0.136939 -0.0049399 0.0554482 0.140506 -0.00568903 0.0597688 
0.12118 -0.0041258 0.0648358 0.0926967 -0.00163763 0.0702014 0.0448271 0.00441936 0.0718786 
-0.0115954 0.0120508 0.0719287 -0.0624011 0.0219814 0.0674651 0.085514 0.0191502 0.0331247 
0.0873251 0.0246978 0.036002 0.0891361 0.0302454 0.0388793 0.0920429 0.0372085 0.0428335 
0.0949725 0.0442012 0.0468101 0.0958628 0.0523543 0.0518536 0.0966663 0.0605568 0.0569425 
0.0941661 0.0688769 0.0625576 0.0914504 0.0772047 0.0682069 0.0849945 0.0835877 0.0730963 
0.0782061 0.0897978 0.0779181 0.0690336 0.0916986 0.080395 0.0595901 0.0931098 0.0826055 
0.0506986 0.0892841 0.0817956 0.041884 0.0847278 0.0805642 0.0364637 0.0763201 0.0771855 
0.0316091 0.0672704 0.073449 0.0314454 0.0568005 0.0691349 0.032197 0.0460534 0.0647083 
0.0375118 0.0356873 0.0608647 0.0438533 0.0254069 0.0571522 0.0541574 0.0161787 0.0545348 
0.0654776 0.00722037 0.0521981 0.0799777 -0.000865119 0.0511523 0.0953984 -0.00869795 0.0504802 
0.111374 -0.0163143 0.0513476 0.127529 -0.0238604 0.0527142 0.135367 -0.0315983 0.0559162 
0.140202 -0.0394055 0.0597809 0.122891 -0.0450528 0.0643558 0.09672 -0.0498361 0.0692148 
0.0513722 -0.0459977 0.0705087 -0.00243599 -0.0383557 0.0702298 -0.0524685 -0.0224867 0.0656022 
0.091235 0.0168053 0.0356086 0.0934727 0.0223537 0.0392191 0.0957105 0.0279021 0.0428296 
0.0994318 0.0351203 0.0479377 0.103184 0.0423733 0.053077 0.104599 0.0511996 0.0598467 
0.105915 0.0600928 0.0666858 0.103053 0.0695495 0.0745542 0.0999183 0.0790429 0.0824897 
0.0916861 0.0866737 0.0895688 0.0830008 0.0941388 0.0965718 0.0708505 0.0966238 0.100056 
0.0583066 0.0985427 0.10314 0.0463695 0.094136 0.101487 0.034517 0.0888467 0.0991728 
0.0271442 0.0790386 0.0936711 0.0205181 0.0684774 0.0876382 0.0197656 0.0564481 0.0810096 
0.0201592 0.0441323 0.0742648 0.0257214 0.0323253 0.0685617 0.0324465 0.0206328 0.0630928 
0.043102 0.00990754 0.0591663 0.0547654 -0.000569746 0.0556352 0.0691225 -0.0106306 0.0536558 
0.0842593 -0.020571 0.0521255 0.0993853 -0.031133 0.0521538 0.114508 -0.0418968 0.0526877 
0.122078 -0.0537546 0.0547805 0.126921 -0.0660075 0.0574363 0.113553 -0.075947 0.0605184 
0.0929003 -0.0849611 0.0637712 0.0562041 -0.0830305 0.0641712 0.0124298 -0.0762712 0.0633125 
-0.0315695 -0.0583245 0.0590098 0.0969279 0.0143215 0.0380729 0.0996012 0.0198349 0.0424202 
0.102274 0.0253482 0.0467674 0.106836 0.0327697 0.0530471 0.111438 0.0402309 0.059367 
0.113418 0.0496638 0.0679138 0.115287 0.0591805 0.0765554 0.112095 0.0697045 0.0867841 
0.108573 0.0802941 0.0971162 0.0985476 0.0891219 0.106531 0.0879446 0.0977931 0.115864 
0.0727401 0.100843 0.120438 0.0570128 0.103253 0.12447 0.0419468 0.0982793 0.121911 
0.0269732 0.0922747 0.118431 0.0176141 0.0811142 0.110668 0.00919075 0.0690945 0.102191 
0.00785907 0.0555794 0.0931353 0.00791112 0.0417726 0.0839666 0.0137347 0.0286092 0.0763435 
0.0208569 0.0155906 0.0690683 0.0318579 0.00346096 0.0638074 0.0438534 -0.00844074 0.059063 
0.058043 -0.020356 0.0561402 0.0728677 -0.0322751 0.0537446 0.0871287 -0.0455892 0.0529308 
0.101207 -0.0593556 0.05263 0.108529 -0.0750236 0.0536214 0.113411 -0.0913782 0.0550795 
0.103996 -0.105281 0.0566977 0.0888611 -0.118203 0.05838 0.060787 -0.118206 0.0579056 
0.0270043 -0.112508 0.0564799 -0.0109213 -0.0930677 0.0524869 0.102305 0.0102752 0.0403173 
0.105513 0.0153508 0.0454414 0.108722 0.0204263 0.0505655 0.114418 0.0274685 0.0582148 
0.120165 0.0345516 0.0659167 0.123159 0.0438415 0.0768126 0.126036 0.0532251 0.0878444 
0.122877 0.0640372 0.101636 0.119323 0.0749424 0.115608 0.10732 0.0843965 0.129001 
0.0945661 0.0937215 0.142343 0.0754461 0.0971176 0.148928 0.0556028 0.0998399 0.154747 
0.0364726 0.0944511 0.150572 0.017442 0.0879305 0.145003 0.00571526 0.0759574 0.13342 
-0.00479416 0.0630755 0.120835 -0.00659755 0.0489034 0.108084 -0.0067022 0.0344795 0.0953011 
-0.00045923 0.0209097 0.0850803 0.00721197 0.00753201 0.0754361 0.0184905 -0.00495837 0.0685564 
0.0306939 -0.0172213 0.0623856 0.0444416 -0.0296294 0.0584099 0.0586363 -0.0420797 0.0550695 
0.0718559 -0.055966 0.0533782 0.0847594 -0.0703179 0.0522217 0.0920619 -0.0863114 0.0521995 
0.0973419 -0.102898 0.0525869 0.0919767 -0.117064 0.0530644 0.0823534 -0.130263 0.053578 
0.0625687 -0.132483 0.052451 0.0383009 -0.12986 0.0506002 0.0069055 -0.115496 0.0467467 
0.107595 0.00612906 0.0425264 0.111335 0.0107336 0.0484197 0.115076 0.0153381 0.0543129 
0.121904 0.0219445 0.0633249 0.128798 0.0285925 0.0724019 0.132817 0.0376495 0.0856515 
0.136714 0.046809 0.0990785 0.13361 0.0577867 0.116475 0.13005 0.068883 0.134129 
0.116085 0.0788405 0.151591 0.101195 0.0886966 0.169034 0.0781528 0.0923812 0.177694 
0.054184 0.0953645 0.185355 0.0309802 0.0896078 0.179516 0.00788304 0.0826315 0.171794 
-0.00620149 0.0699653 0.156304 -0.0187839 0.0563507 0.13952 -0.0210414 0.0416529 0.123026 
-0.0212843 0.0267439 0.106589 -0.014614 0.0128783 0.0937605 -0.00638826 -0.000752472 0.0817436 
0.0051671 -0.0135127 0.0732503 0.0175762 -0.0260497 0.0656606 0.0308872 -0.0388635 0.0606411 