# vtk DataFile Version 3.0
vtk output
ASCII
DATASET RECTILINEAR_GRID
FIELD FieldData 2
base_index 1 3 int
0 34 34 
avtOriginalBounds 1 6 double
-10 -3.33333 -3.33333 3.33333 -3.33333 3.33333 
DIMENSIONS 34 34 34
X_COORDINATES 34 float
-10 -9.79798 -9.59596 -9.39394 -9.19192 -8.9899 -8.78788 -8.58586 -8.38384 
-8.18182 -7.9798 -7.77778 -7.57576 -7.37374 -7.17172 -6.9697 -6.76768 -6.56566 
-6.36364 -6.16162 -5.9596 -5.75758 -5.55556 -5.35354 -5.15152 -4.9495 -4.74747 
-4.54545 -4.34343 -4.14141 -3.93939 -3.73737 -3.53535 -3.33333 
Y_COORDINATES 34 float
-3.33333 -3.13131 -2.92929 -2.72727 -2.52525 -2.32323 -2.12121 -1.91919 -1.71717 
-1.51515 -1.31313 -1.11111 -0.909091 -0.707071 -0.505051 -0.30303 -0.10101 0.10101 
0.30303 0.50505 0.70707 0.909091 1.11111 1.31313 1.51515 1.71717 1.91919 
2.12121 2.32323 2.52525 2.72727 2.92929 3.13131 3.33333 
Z_COORDINATES 34 float
-3.33333 -3.13131 -2.92929 -2.72727 -2.52525 -2.32323 -2.12121 -1.91919 -1.71717 
-1.51515 -1.31313 -1.11111 -0.909091 -0.707071 -0.505051 -0.30303 -0.10101 0.10101 
0.30303 0.50505 0.70707 0.909091 1.11111 1.31313 1.51515 1.71717 1.91919 
2.12121 2.32323 2.52525 2.72727 2.92929 3.13131 3.33333 
POINT_DATA 39304
FIELD FieldData 1
grad 3 39304 float
0.204024 0.0187435 0.00177185 0.216186 0.0266872 0.0181963 0.228347 0.0346308 0.0346208 
0.247057 0.0442373 0.067343 0.265903 0.0538783 0.100405 0.263483 0.0630308 0.15094 
0.260157 0.0721624 0.202218 0.220517 0.0793684 0.2544 0.178508 0.0864489 0.306641 
0.107543 0.0905466 0.328109 0.0340038 0.0943792 0.346841 -0.0378937 0.0951498 0.321396 
-0.109604 0.0955724 0.29093 -0.154001 0.0949212 0.237938 -0.194586 0.0941201 0.181803 
-0.205501 0.0946068 0.129024 -0.211472 0.0953081 0.0768035 -0.199137 0.0985091 0.0395027 
-0.18323 0.102198 0.00511309 -0.16111 0.108231 -0.0125454 -0.137592 0.114791 -0.0264394 
-0.116565 0.121793 -0.027434 -0.0961769 0.128907 -0.0251209 -0.0825145 0.132794 -0.0183516 
-0.0707991 0.135747 -0.0102924 -0.0653273 0.132513 -0.00605811 -0.0618805 0.127272 -0.00306433 
-0.0617389 0.11676 -0.00596181 -0.062791 0.104345 -0.0109867 -0.0648888 0.090019 -0.0191861 
-0.0674049 0.0749289 -0.0286553 -0.0703743 0.0603213 -0.0387961 -0.0735436 0.0459266 -0.0492333 
-0.0773299 0.0326879 -0.0596634 0.2112 -0.00248091 0.00429686 0.223614 0.000904474 0.0222991 
0.236029 0.00428984 0.0403013 0.254714 0.00799546 0.0742866 0.273529 0.0117077 0.108605 
0.270365 0.0141054 0.159355 0.266265 0.0164472 0.210803 0.225647 0.0179306 0.262408 
0.182647 0.019358 0.314023 0.110758 0.021993 0.334364 0.0363016 0.0247354 0.351926 
-0.0360918 0.029731 0.324859 -0.108251 0.0349826 0.29272 -0.152386 0.0417739 0.238438 
-0.192611 0.0487801 0.181066 -0.202624 0.0563874 0.128029 -0.207602 0.0640948 0.0757146 
-0.194182 0.0720656 0.0393066 -0.177173 0.0800879 0.0060024 -0.154492 0.0880585 -0.00978431 
-0.130536 0.0960174 -0.0216295 -0.11034 0.102755 -0.0202546 -0.0911073 0.109179 -0.01549 
-0.0800198 0.112254 -0.00688051 -0.0712899 0.114358 0.00284194 -0.0692196 0.111611 0.00736547 
-0.0693091 0.10729 0.0102029 -0.0717974 0.0990362 0.00613759 -0.0751519 0.0893628 -0.000420317 
-0.0782872 0.0781789 -0.0102882 -0.0813348 0.0663908 -0.02148 -0.0840997 0.0549076 -0.0330699 
-0.0867399 0.0435588 -0.0448353 -0.0898572 0.0331446 -0.0563691 0.211359 -0.0269978 0.00574408 
0.223649 -0.0284048 0.0236969 0.235938 -0.0298118 0.0416497 0.254053 -0.031549 0.0740228 
0.27229 -0.0332931 0.106696 0.268651 -0.03641 0.153539 0.264081 -0.0395853 0.200985 
0.22444 -0.0422796 0.2476 0.182512 -0.0449424 0.294159 0.113184 -0.0428287 0.311611 
0.0414197 -0.0402905 0.326475 -0.0284422 -0.0312348 0.300396 -0.0980878 -0.0214385 0.269664 
-0.141101 -0.00809852 0.218643 -0.180399 0.00573598 0.164791 -0.190592 0.0194264 0.115296 
-0.195935 0.0330928 0.0665277 -0.183315 0.04496 0.0332106 -0.167191 0.0564762 0.0029084 
-0.145664 0.0658046 -0.0103411 -0.122922 0.0746408 -0.0197536 -0.104399 0.0809002 -0.0164834 
-0.0869564 0.0864988 -0.00996119 -0.0781156 0.0888306 -0.000311785 -0.0717645 0.0902168 0.0102429 
-0.0720301 0.0880726 0.0148346 -0.0744416 0.0847834 0.0174925 -0.078605 0.0788737 0.0128032 
-0.083401 0.0720177 0.00546076 -0.0871944 0.0641296 -0.00522548 -0.0905867 0.0558286 -0.0172493 
-0.0932053 0.0477227 -0.0295293 -0.0954825 0.0397029 -0.0419223 -0.0980814 0.0324067 -0.0539631 
0.207792 -0.0532639 0.00661871 0.219754 -0.0595876 0.0236577 0.231717 -0.0659113 0.0406967 
0.248975 -0.072848 0.06993 0.266343 -0.0797974 0.0994172 0.262371 -0.0877702 0.140164 
0.257492 -0.0957865 0.18139 0.219868 -0.101838 0.220669 0.180108 -0.10776 0.259822 
0.11519 -0.105668 0.273446 0.0480363 -0.102863 0.284801 -0.017686 -0.0898349 0.261096 
-0.0832453 -0.075645 0.233408 -0.124679 -0.0562312 0.188066 -0.162747 -0.0360884 0.140261 
-0.173697 -0.016866 0.0963269 -0.180126 0.00220312 0.0530386 -0.169308 0.0175027 0.0239802 
-0.155124 0.0320668 -0.00230178 -0.135662 0.042445 -0.0126605 -0.115012 0.0518814 -0.0194364 
-0.0986084 0.057549 -0.0145227 -0.0832937 0.0622503 -0.00661173 -0.0765252 0.0638766 0.00365249 
-0.0722304 0.0646128 0.0145979 -0.0742657 0.0631338 0.0191405 -0.0783541 0.0609364 0.0216064 
-0.0836854 0.0574157 0.016582 -0.0894656 0.0534172 0.00885275 -0.0937155 0.0489065 -0.00220027 
-0.0973534 0.0441909 -0.0145828 -0.0998565 0.0395969 -0.0271498 -0.101859 0.0350566 -0.0397982 
-0.104019 0.031034 -0.0520292 0.198452 -0.0790335 0.00878239 0.210272 -0.0895148 0.0241339 
0.222091 -0.0999961 0.0394854 0.239062 -0.110229 0.0640902 0.256139 -0.120456 0.0888876 
0.252757 -0.130364 0.121667 0.248505 -0.140259 0.154786 0.214112 -0.146783 0.185165 
0.177753 -0.153086 0.215366 0.118582 -0.149851 0.224522 0.0573832 -0.145769 0.231808 
-0.00320572 -0.130076 0.210941 -0.0637252 -0.113064 0.186874 -0.103386 -0.0902645 0.148478 
-0.140136 -0.0666577 0.108083 -0.152469 -0.0444879 0.0710519 -0.160732 -0.0225576 0.0345813 
-0.152768 -0.00557598 0.0105703 -0.141639 0.01044 -0.0110095 -0.125176 0.0210599 -0.0185051 
-0.107513 0.0304656 -0.0228317 -0.0935522 0.0354651 -0.0169714 -0.0805412 0.0393348 -0.00849914 
-0.0753645 0.0404741 0.00164381 -0.0724556 0.0408229 0.0122704 -0.0753092 0.040066 0.0167039 
-0.0800318 0.0389504 0.0191289 -0.0857082 0.0375741 0.0144517 -0.0917289 0.0361038 0.00720969 
-0.0960712 0.0345922 -0.00326754 -0.099742 0.0330641 -0.0150389 -0.102134 0.0316499 -0.0270758 
-0.103961 0.0302859 -0.0392299 -0.105798 0.0292916 -0.0510281 0.185759 -0.104515 0.0116946 
0.197544 -0.118713 0.0249094 0.209328 -0.132911 0.0381241 0.226342 -0.145334 0.057236 
0.243464 -0.15772 0.0764707 0.241208 -0.167868 0.100196 0.238127 -0.177922 0.124113 
0.20767 -0.183243 0.144683 0.175427 -0.188255 0.165035 0.122778 -0.183202 0.169351 
0.0683156 -0.177255 0.172241 0.0134368 -0.159657 0.154481 -0.0414891 -0.140735 0.134373 
-0.0792634 -0.116111 0.10366 -0.114644 -0.0906916 0.0714656 -0.128725 -0.0670753 0.0421153 
-0.139256 -0.0437594 0.013239 -0.134758 -0.0261122 -0.00526631 -0.127328 -0.00957102 -0.021748 
-0.114408 0.000821192 -0.0263966 -0.100252 0.00982988 -0.0283827 -0.088922 0.014117 -0.0219805 
-0.0783172 0.0171934 -0.0134273 -0.0744534 0.0179724 -0.00383309 -0.072541 0.0180865 0.00606257 
-0.0756605 0.0180845 0.0103524 -0.0804119 0.018045 0.0128242 -0.0859554 0.0186711 0.00889019 
-0.0917851 0.0195377 0.00264302 -0.0960081 0.0208055 -0.00671113 -0.0995886 0.0222339 -0.0173081 
-0.101871 0.0238067 -0.0283404 -0.10358 0.0254431 -0.0395649 -0.105162 0.0273345 -0.0505687 
0.169458 -0.125756 0.0196507 0.181983 -0.142809 0.031212 0.194508 -0.159863 0.0427733 
0.213166 -0.172743 0.056376 0.231953 -0.185535 0.0700212 0.232044 -0.193649 0.0846051 
0.23134 -0.201564 0.0992289 0.204936 -0.203884 0.110215 0.176856 -0.205839 0.120963 
0.129885 -0.198582 0.120276 0.0812363 -0.190507 0.118573 0.0311162 -0.17223 0.102808 
-0.019171 -0.152795 0.0854455 -0.0555328 -0.128496 0.0611303 -0.0899514 -0.103518 0.0358449 
-0.105894 -0.0805466 0.0133781 -0.118757 -0.0579091 -0.00861905 -0.117748 -0.04099 -0.0220361 
-0.114033 -0.0251868 -0.033779 -0.104609 -0.0155502 -0.0358934 -0.0939008 -0.00730118 -0.0358414 
-0.0849751 -0.00360086 -0.0291749 -0.0765064 -0.00106689 -0.0208125 -0.0735106 -0.000351859 -0.0119284 
-0.0720991 -0.000163357 -0.00289331 -0.074936 0.000583316 0.00127227 -0.0791507 0.00151102 0.00385857 
-0.0840942 0.00370751 0.000873682 -0.089301 0.00636218 -0.00412302 -0.0931382 0.00975722 -0.0120253 
-0.0964277 0.0134484 -0.0210898 -0.098526 0.0173684 -0.0307635 -0.100099 0.0213894 -0.0407062 
-0.101454 0.0256225 -0.0505921 0.150872 -0.14431 0.0308014 0.164628 -0.163675 0.0410152 
0.178384 -0.183039 0.0512291 0.199703 -0.195277 0.0593123 0.221179 -0.207367 0.0673511 
0.224392 -0.212005 0.072738 0.226828 -0.216327 0.078012 0.204551 -0.214506 0.0795557 
0.180663 -0.212284 0.0808561 0.138837 -0.20258 0.0750636 0.0954163 -0.192211 0.0686406 
0.049452 -0.174033 0.0541679 0.00319882 -0.154968 0.0387804 -0.0320504 -0.132355 0.0200512 
-0.0657641 -0.109247 0.000855706 -0.0836407 -0.0882444 -0.0152329 -0.0988777 -0.0675923 -0.0308037 
-0.101372 -0.0522842 -0.0393968 -0.10138 -0.0380188 -0.0466284 -0.0954241 -0.0294723 -0.0464068 
-0.0881265 -0.0222126 -0.0445083 -0.0814609 -0.0190194 -0.0377535 -0.0749573 -0.016869 -0.0297536 
-0.0725477 -0.0160304 -0.021682 -0.0713232 -0.0155716 -0.0135896 -0.0735301 -0.0140803 -0.00953601 
-0.07685 -0.0122543 -0.00679224 -0.0808976 -0.00876111 -0.00869767 -0.0852081 -0.00466585 -0.012282 
-0.0884907 0.000443257 -0.0185241 -0.0913621 0.0059579 -0.0258293 -0.0932295 0.01182 -0.0339204 
-0.094654 0.0178355 -0.0423581 -0.0958023 0.0240656 -0.0509212 0.130249 -0.153282 0.0497671 
0.14627 -0.174073 0.0601692 0.162291 -0.194862 0.0705712 0.18818 -0.205748 0.0736815 
0.214274 -0.216428 0.07664 0.221542 -0.217332 0.0727526 0.228008 -0.217819 0.068574 
0.20915 -0.212313 0.0606869 0.18864 -0.206415 0.052558 0.150239 -0.195189 0.0412953 
0.110249 -0.183488 0.0297541 0.0668729 -0.166469 0.0153224 0.0231124 -0.148845 0.000562344 
-0.0117066 -0.128972 -0.0142068 -0.045278 -0.108786 -0.0289773 -0.0649466 -0.0906553 -0.0399904 
-0.0822982 -0.072867 -0.0503773 -0.0877484 -0.0597251 -0.0549201 -0.0908764 -0.0474898 -0.0583227 
-0.0877666 -0.040162 -0.0560775 -0.0832534 -0.0339385 -0.0525617 -0.0783344 -0.0310814 -0.0456877 
-0.0733115 -0.0290876 -0.0379527 -0.0711625 -0.0279292 -0.0305451 -0.0698454 -0.0270125 -0.0232321 
-0.0712437 -0.0248064 -0.0192893 -0.0735228 -0.0221821 -0.0164395 -0.0765402 -0.017718 -0.0174421 
-0.0798242 -0.0125897 -0.0198359 -0.0824193 -0.0062824 -0.0246079 -0.0847388 0.000496388 -0.0303312 
-0.0862751 0.00774205 -0.0369341 -0.0874659 0.0151937 -0.043925 -0.088375 0.0228979 -0.0511714 
0.108221 -0.155646 0.0741226 0.12722 -0.177251 0.0857719 0.146219 -0.198857 0.0974211 
0.177995 -0.207901 0.0959356 0.210038 -0.216683 0.0941764 0.222003 -0.213672 0.0809615 
0.233115 -0.210159 0.0672592 0.217186 -0.201281 0.0499493 0.199492 -0.192053 0.0324041 
0.163332 -0.179942 0.0154199 0.125531 -0.167575 -0.00151426 0.0836626 -0.152444 -0.0167677 
0.0413319 -0.136999 -0.0318301 0.00647251 -0.120595 -0.0437607 -0.0273443 -0.104056 -0.0552542 
-0.0487072 -0.0894202 -0.0620903 -0.0679945 -0.0751013 -0.0681501 -0.0760232 -0.0645086 -0.0691762 
-0.0818551 -0.0546429 -0.0692202 -0.0811624 -0.0486225 -0.065167 -0.0790017 -0.0434674 -0.060192 
-0.0754754 -0.0408285 -0.0531775 -0.0715989 -0.0388348 -0.0456401 -0.069486 -0.0372211 -0.0387939 
-0.0678835 -0.0357175 -0.0321477 -0.0683501 -0.0328169 -0.028315 -0.0694878 -0.0294632 -0.0253947 
-0.0713822 -0.0242531 -0.0256163 -0.0735499 -0.0183726 -0.0269726 -0.0753659 -0.011223 -0.0304055 
-0.0770411 -0.00356581 -0.0346692 -0.0781772 0.00467813 -0.0398491 -0.0790754 0.0131809 -0.0454332 
-0.0797232 0.0219988 -0.0513671 0.0862757 -0.14184 0.104264 0.108805 -0.162505 0.118921 
0.131335 -0.18317 0.133578 0.169882 -0.190673 0.12809 0.208762 -0.197901 0.122183 
0.225423 -0.193169 0.0994371 0.241139 -0.187929 0.0759753 0.227085 -0.178435 0.0492687 
0.21109 -0.168663 0.0223505 0.175782 -0.157844 -0.000429471 0.138759 -0.146932 -0.0228415 
0.0973762 -0.13492 -0.0395637 0.0554981 -0.122783 -0.0556392 0.0203081 -0.110353 -0.0657749 
-0.0139486 -0.0978816 -0.0750818 -0.0366222 -0.0868637 -0.0787537 -0.0573653 -0.0760879 -0.0814864 
-0.0672335 -0.0679833 -0.0797149 -0.0749799 -0.0603999 -0.0770645 -0.0759475 -0.0555418 -0.0715474 
-0.07539 -0.0512969 -0.0653852 -0.0727228 -0.0487295 -0.0582577 -0.0695146 -0.0465923 -0.0508828 
-0.0672164 -0.0444448 -0.0445257 -0.0651817 -0.0422944 -0.0384633 -0.0647157 -0.0387267 -0.0348161 
-0.0647585 -0.0346994 -0.0319523 -0.0655721 -0.0288901 -0.0316676 -0.066664 -0.0224372 -0.0323144 
-0.0676827 -0.0146971 -0.0347459 -0.0686721 -0.00644227 -0.0378913 -0.0693471 0.00248601 -0.0419204 
-0.0698835 0.0117114 -0.0463393 -0.070234 0.0213124 -0.051141 0.0643922 -0.115907 0.138745 
0.0908666 -0.134314 0.157729 0.117341 -0.152721 0.176714 0.163321 -0.158908 0.16767 
0.209708 -0.16484 0.158041 0.231062 -0.160034 0.125613 0.251351 -0.154772 0.0922145 
0.238382 -0.146727 0.0561308 0.223245 -0.138502 0.0198723 0.18775 -0.130607 -0.00875935 
0.150446 -0.122742 -0.0367129 0.108783 -0.114772 -0.0553889 0.0666243 -0.106789 -0.0730107 
0.0308861 -0.0987132 -0.0821344 -0.00395629 -0.0906239 -0.0900724 -0.027653 -0.0833161 -0.0913397 
-0.049492 -0.0761386 -0.0914952 -0.0606456 -0.0704763 -0.0874654 -0.0697142 -0.0651097 -0.0826189 
-0.0717746 -0.061305 -0.0758958 -0.0722581 -0.0578517 -0.0687504 -0.0700498 -0.055246 -0.0615308 
-0.0671514 -0.0528575 -0.054292 -0.0645021 -0.0501172 -0.0483698 -0.0619248 -0.0472751 -0.0428288 
-0.0605256 -0.043061 -0.0394239 -0.0595084 -0.038402 -0.0367117 -0.0592728 -0.0321035 -0.0361267 
-0.0593194 -0.025213 -0.0363099 -0.0595272 -0.0170714 -0.0379932 -0.0597995 -0.00842942 -0.0402766 
-0.0599679 0.000947748 -0.043359 -0.0600905 0.0106493 -0.0467938 -0.0601167 0.0207858 -0.0505984 
0.0474572 -0.0739772 0.16914 0.0768136 -0.0878411 0.192165 0.10617 -0.101705 0.215189 
0.157514 -0.107301 0.203561 0.209317 -0.112726 0.19121 0.233814 -0.111055 0.151088 
0.257149 -0.109083 0.109784 0.244598 -0.105855 0.0663202 0.229707 -0.102546 0.0227157 
0.193905 -0.0998561 -0.0105695 0.156243 -0.0972212 -0.0429371 0.114477 -0.0943671 -0.0633118 
0.0722454 -0.0914881 -0.0823236 0.0364178 -0.0879786 -0.0908555 0.00148378 -0.0843813 -0.0979251 
-0.0225393 -0.0805645 -0.0975033 -0.044744 -0.0767111 -0.0958329 -0.0564067 -0.0731689 -0.0902395 
-0.0660124 -0.0696874 -0.0838806 -0.0685011 -0.066692 -0.076438 -0.0693883 -0.063806 -0.0687515 
-0.0672255 -0.0610535 -0.0616871 -0.0642805 -0.0583351 -0.0547822 -0.0611472 -0.0549983 -0.0494198 
-0.0579595 -0.0514825 -0.0445039 -0.0556822 -0.0466634 -0.0414995 -0.0537002 -0.0414216 -0.039115 
-0.0525109 -0.0346939 -0.0384818 -0.0516079 -0.0274297 -0.0384809 -0.0510457 -0.0189744 -0.0397105 
-0.0506198 -0.0100428 -0.0414323 -0.050266 -0.00033811 -0.0438335 -0.049944 0.00970761 -0.0465344 
-0.0496253 0.0202407 -0.0495536 0.0345543 -0.0190123 0.196208 0.0659264 -0.0264711 0.223037 
0.0972984 -0.0339298 0.249866 0.152321 -0.0395273 0.236446 0.207836 -0.045086 0.222187 
0.234213 -0.0491662 0.175992 0.259351 -0.0531834 0.128438 0.246674 -0.0575163 0.0792205 
0.231531 -0.0618698 0.0298952 0.195323 -0.0662419 -0.00706716 0.157242 -0.0706156 -0.0429304 
0.115518 -0.0737536 -0.0647957 0.0733808 -0.076751 -0.0850702 0.0378377 -0.0779816 -0.0933527 
0.0032146 -0.0789656 -0.0999618 -0.0205674 -0.0784613 -0.0984338 -0.0425425 -0.0777089 -0.0955496 
-0.0540818 -0.076024 -0.0889586 -0.0635849 -0.0741572 -0.0816444 -0.0659604 -0.0717724 -0.0738786 
-0.0667322 -0.069271 -0.0660113 -0.0642777 -0.0662833 -0.0593039 -0.0609958 -0.0631708 -0.052894 
-0.0572706 -0.0592345 -0.048193 -0.0534169 -0.0550597 -0.0439867 -0.0503065 -0.0496693 -0.0415118 
-0.0474372 -0.0438846 -0.0395986 -0.0453721 -0.0367767 -0.0391224 -0.0435974 -0.0291909 -0.0391652 
-0.0422985 -0.0204935 -0.040181 -0.0411898 -0.0113516 -0.0415861 -0.0403011 -0.0014183 -0.0435225 
-0.0395094 0.0088641 -0.0456932 -0.0388292 0.0196807 -0.0480996 0.0306194 0.0387028 0.210675 
0.061561 0.0380422 0.23851 0.0925024 0.0373816 0.266344 0.146682 0.0315586 0.252641 
0.201345 0.025628 0.238073 0.226996 0.0150099 0.1904 0.251412 0.00419237 0.141319 
0.238499 -0.00857662 0.0902513 0.223152 -0.0214728 0.0390545 0.18748 -0.0334972 0.000603571 
0.150001 -0.0454439 -0.0367141 0.109402 -0.0547326 -0.0592512 0.0684483 -0.0637191 -0.0801086 
0.0341979 -0.0694862 -0.0882457 0.000882768 -0.074804 -0.094608 -0.0217692 -0.0772465 -0.0925855 
-0.0426439 -0.0792098 -0.0891655 -0.0533444 -0.0790558 -0.0823186 -0.0620595 -0.0784887 -0.074803 
-0.0638269 -0.0765401 -0.0673303 -0.064031 -0.0742806 -0.0598674 -0.0610248 -0.0710429 -0.0539234 
-0.0571955 -0.0675544 -0.0483688 -0.0528204 -0.0630971 -0.0445777 -0.0482874 -0.0583594 -0.0412971 
-0.0444067 -0.0524902 -0.0395427 -0.0407375 -0.0462539 -0.0382833 -0.0378817 -0.0388315 -0.0381609 
-0.0353196 -0.0309807 -0.0384492 -0.0333272 -0.0220832 -0.0394583 -0.0315627 -0.012767 -0.0407558 
-0.0301325 -0.00263591 -0.0424233 -0.0288499 0.0078546 -0.0442542 -0.0277829 0.0189375 -0.0462221 
0.0346179 0.0988508 0.213996 0.0629647 0.105336 0.24036 0.0913114 0.111821 0.266723 
0.140649 0.105574 0.254072 0.190424 0.0990618 0.240607 0.21304 0.0812091 0.195523 
0.234501 0.0628741 0.149094 0.221257 0.0408944 0.0996285 0.205748 0.0186771 0.0499651 
0.171446 -0.00152152 0.0119618 0.135473 -0.0215406 -0.0250048 0.0969549 -0.0371204 -0.0474893 
0.0581481 -0.0521958 -0.0683281 0.0260823 -0.0623192 -0.076412 -0.00504299 -0.0717516 -0.0827162 
-0.0257786 -0.0768176 -0.0807404 -0.0447826 -0.0811558 -0.0773846 -0.0540111 -0.0822439 -0.0709376 
-0.0613322 -0.0826978 -0.0638875 -0.0620536 -0.0810311 -0.0572533 -0.0612899 -0.0788873 -0.0507127 
-0.0575022 -0.0753865 -0.0458914 -0.0529389 -0.0715378 -0.0415111 -0.0478631 -0.0666292 -0.0388497 
-0.0426388 -0.0614137 -0.0366858 -0.0380431 -0.0551473 -0.0358207 -0.0336514 -0.0485402 -0.0353767 
-0.0300802 -0.0408616 -0.0357822 -0.0268054 -0.032796 -0.0364944 -0.0241578 -0.0237353 -0.0376799 
-0.021761 -0.0142766 -0.0390548 -0.0197837 -0.00397509 -0.0406271 -0.0179914 0.00669826 -0.0422865 
-0.0165152 0.0180322 -0.04397 0.0447253 0.147004 0.210646 0.0688871 0.158858 0.234607 
0.0930487 0.170712 0.258567 0.134482 0.164503 0.247999 0.176275 0.157919 0.236711 
0.193783 0.134973 0.196653 0.210257 0.111332 0.15537 0.196247 0.0821942 0.109715 
0.180248 0.0526984 0.0637748 0.147901 0.0257133 0.0275487 0.1141 -0.00104857 -0.00781361 
0.0786049 -0.0219973 -0.0297462 0.0429173 -0.0422855 -0.0501527 0.0139766 -0.0561128 -0.0583353 
-0.0140226 -0.0690387 -0.0648123 -0.032073 -0.0762958 -0.063434 -0.0484652 -0.082608 -0.0607464 
-0.0556876 -0.0847254 -0.0553556 -0.0611209 -0.0860243 -0.0494374 -0.0604852 -0.0846238 -0.04419 
-0.058484 -0.0826158 -0.0390935 -0.0537797 -0.0789725 -0.0357613 -0.0483824 -0.0749097 -0.0328815 
-0.042589 -0.0697253 -0.0315663 -0.0366809 -0.0642161 -0.0307041 -0.03141 -0.0577129 -0.0308665 
-0.0263459 -0.0508873 -0.0313612 -0.0220987 -0.0430611 -0.0324107 -0.0181466 -0.0348735 -0.0336605 
-0.0148471 -0.0257035 -0.0351394 -0.0118087 -0.0161406 -0.0367099 -0.00924528 -0.00567565 -0.0383058 
-0.00689144 0.00518728 -0.039913 -0.00494201 0.016813 -0.0414304 0.0606975 0.183643 0.200892 
0.0791473 0.199159 0.221555 0.097597 0.214675 0.242218 0.128186 0.20895 0.234723 
0.159029 0.202782 0.226642 0.169436 0.1768 0.193948 0.178974 0.149974 0.160207 
0.163781 0.11565 0.120482 0.146976 0.0808364 0.0803677 0.117145 0.0483968 0.0471953 
0.0861578 0.0161685 0.0146401 0.0545884 -0.00926381 -0.00626117 0.022953 -0.0339237 -0.025838 
-0.0019595 -0.0508288 -0.0342653 -0.0259339 -0.0666517 -0.0411368 -0.0405609 -0.0756847 -0.0408846 
-0.05363 -0.083586 -0.0394451 -0.0583336 -0.0865286 -0.0357405 -0.0614049 -0.0885037 -0.031594 
-0.0591136 -0.0873541 -0.0282599 -0.0556158 -0.0855014 -0.0251085 -0.0498656 -0.081831 -0.023617 
-0.043538 -0.0776946 -0.022551 -0.037011 -0.0724029 -0.02279 -0.0304262 -0.0667767 -0.0234067 
-0.0245182 -0.0601904 -0.0247294 -0.0188297 -0.0532927 -0.0262811 -0.0139443 -0.0454231 -0.0280862 
-0.00934896 -0.0372027 -0.0299827 -0.00540085 -0.0279752 -0.0318673 -0.00171165 -0.0183448 -0.033747 
0.00147517 -0.00772315 -0.0354807 0.00444034 0.00333585 -0.03715 0.00692458 0.0152923 -0.038615 
0.0780529 0.205222 0.194394 0.0907283 0.222813 0.213286 0.103404 0.240404 0.232177 
0.122771 0.23562 0.228216 0.142279 0.23037 0.223779 0.144746 0.203453 0.197886 
0.146489 0.175615 0.17108 0.129309 0.138498 0.136688 0.110895 0.100776 0.101802 
0.083354 0.0648456 0.0712857 0.0550022 0.0290749 0.041158 0.0276327 0.000578272 0.0209673 
0.000374848 -0.0270917 0.00190587 -0.0200623 -0.0461606 -0.00712058 -0.0395477 -0.0640293 -0.0147468 
-0.0503623 -0.0743632 -0.0160112 -0.0597318 -0.0834412 -0.0162153 -0.0616641 -0.0870745 -0.0145483 
-0.0621453 -0.0896455 -0.0125162 -0.0580682 -0.0888369 -0.0113407 -0.0529655 -0.087268 -0.010358 
-0.0461178 -0.0837755 -0.0108356 -0.0388227 -0.0797898 -0.0116877 -0.0315488 -0.0746225 -0.0135278 
-0.0242811 -0.0691131 -0.015654 -0.0177291 -0.0626434 -0.0181505 -0.0114093 -0.0558622 -0.0207671 
-0.00586055 -0.048089 -0.0233429 -0.000590193 -0.0399577 -0.0259039 0.00406619 -0.0307469 -0.0282264 
0.00847699 -0.0211043 -0.0304534 0.0123861 -0.0103368 -0.032376 0.0160738 0.000926826 -0.0341642 
0.0192242 0.0132717 -0.0356438 0.0968494 0.211115 0.191287 0.103685 0.229128 0.209997 
0.110521 0.247141 0.228708 0.118274 0.243774 0.22876 0.126046 0.239963 0.228424 
0.1197 0.214302 0.208744 0.112753 0.187712 0.188241 0.0927465 0.150297 0.158559 
0.0718889 0.112175 0.128279 0.0463999 0.0747997 0.100005 0.0204994 0.0374911 0.0719093 
-0.00238478 0.00740841 0.0520951 -0.0249261 -0.021853 0.033222 -0.040422 -0.0421338 0.0232269 
-0.0549349 -0.0611616 0.0144707 -0.0615319 -0.0723015 0.011283 -0.0668096 -0.0821266 0.00902337 
-0.0657078 -0.0863107 0.00828677 -0.0633611 -0.089394 0.00784734 -0.0573625 -0.0890205 0.00660857 
-0.0505421 -0.0878691 0.00518995 -0.0425432 -0.0847679 0.00260925 -0.034242 -0.0811667 -0.000269432 
-0.0262075 -0.076365 -0.0037597 -0.01825 -0.0712158 -0.00742702 -0.011047 -0.0650707 -0.0111113 
-0.0040887 -0.0586026 -0.0148011 0.0021497 -0.0510714 -0.0181634 0.00812812 -0.0431562 -0.0214074 
0.0135549 -0.0340395 -0.0242014 0.0187611 -0.0244421 -0.0268154 0.0234953 -0.0135403 -0.02898 
0.0280214 -0.00206304 -0.0309465 0.0319748 0.0107301 -0.0325103 0.115121 0.206066 0.193864 
0.116654 0.223719 0.214095 0.118187 0.241373 0.234325 0.115077 0.239352 0.238766 
0.11187 0.236921 0.242877 0.0967024 0.213251 0.228209 0.0810255 0.188676 0.212741 
0.0576843 0.152365 0.186078 0.0338434 0.115289 0.158686 0.0100042 0.0780962 0.131323 
-0.0138347 0.0408934 0.103964 -0.0323936 0.0106376 0.0837179 -0.0503523 -0.0188286 0.0642808 
-0.0609661 -0.0393477 0.0529047 -0.0705549 -0.0586184 0.0426533 -0.0729903 -0.0700477 0.0373911 
-0.0742336 -0.0801702 0.0329605 -0.0701604 -0.0847462 0.0298395 -0.0650498 -0.08824 0.0269739 
-0.0571771 -0.088368 0.0234411 -0.0486829 -0.0877388 0.0197581 -0.0395484 -0.0852059 0.0152359 
-0.0302498 -0.0821848 0.0104987 -0.0214352 -0.0779546 0.0055151 -0.0127607 -0.0733744 0.000460246 
-0.00485397 -0.0677387 -0.00428799 0.00280379 -0.0617606 -0.00893678 0.009818 -0.0546093 -0.0130058 
0.0165998 -0.0470344 -0.0168655 0.0229199 -0.038094 -0.0200947 0.0290553 -0.0286075 -0.0230718 
0.0347796 -0.0175954 -0.0254789 0.0403225 -0.00591015 -0.0276346 0.0452912 0.00737511 -0.0293123 
0.132799 0.188649 0.202868 0.129636 0.205059 0.226541 0.126473 0.221469 0.250214 
0.11335 0.220713 0.259467 0.100019 0.219598 0.268419 0.0760211 0.198746 0.257403 
0.0515697 0.177054 0.245537 0.0243179 0.143434 0.219982 -0.00311653 0.109037 0.193534 
-0.0257603 0.0738668 0.165579 -0.0479781 0.0386279 0.13749 -0.0623925 0.00979618 0.1159 
-0.0759201 -0.0183074 0.0950489 -0.0817184 -0.0379639 0.0818253 -0.0864381 -0.0564419 0.069666 
-0.0847753 -0.067577 0.0621586 -0.0820488 -0.0774882 0.0554264 -0.0750753 -0.0822767 0.0499426 
-0.0672732 -0.0860656 0.0447023 -0.05758 -0.0867705 0.0390111 -0.0474613 -0.0867816 0.0332185 
-0.0372092 -0.0850171 0.0269377 -0.0269228 -0.0827973 0.0205317 -0.0173064 -0.0793714 0.0142322 
-0.00788385 -0.0755963 0.00796352 0.000786248 -0.0706787 0.00229134 0.00921232 -0.0653905 -0.00318737 
0.0170998 -0.0587752 -0.00787308 0.0247927 -0.0516807 -0.0122724 0.032145 -0.0430099 -0.0158958 
0.0393609 -0.0337086 -0.0192088 0.0462616 -0.0226132 -0.0218588 0.0530232 -0.0107263 -0.0242164 
0.059247 0.00310058 -0.0260413 0.148723 0.163923 0.214141 0.1415 0.178228 0.24196 
0.134277 0.192532 0.269778 0.112259 0.192363 0.283925 0.0899333 0.191893 0.297787 
0.0577755 0.1739 0.289546 0.0251995 0.155162 0.280364 -0.00582569 0.125176 0.254652 
-0.0367496 0.0944577 0.227861 -0.0583899 0.0626734 0.198359 -0.0792049 0.0307945 0.168615 
-0.0898543 0.00462385 0.145183 -0.0993485 -0.020898 0.122469 -0.100793 -0.0388257 0.10726 
-0.101114 -0.0556937 0.093098 -0.0957919 -0.0660422 0.0834647 -0.0895293 -0.0753041 0.0745863 
-0.0799951 -0.0800961 0.0670226 -0.0698226 -0.084016 0.0597155 -0.0585193 -0.0852728 0.052217 
-0.0469615 -0.0859304 0.0446754 -0.0356818 -0.0850141 0.0369756 -0.0244735 -0.0836942 0.0292353 
-0.0140515 -0.0812004 0.0219019 -0.00385719 -0.0783667 0.0146863 0.00564815 -0.0743025 0.00829853 
0.01493 -0.0698393 0.00217929 0.0238135 -0.0638751 -0.00298602 0.032553 -0.0573689 -0.00780685 
0.0411034 -0.049048 -0.0117483 0.0495781 -0.0400013 -0.0153379 0.057869 -0.0288657 -0.0182033 
0.0660789 -0.0168084 -0.0207492 0.0738397 -0.00244214 -0.0227319 0.162496 0.130229 0.228199 
0.151993 0.141368 0.261026 0.14149 0.152508 0.293854 0.111951 0.152097 0.312995 
0.0820157 0.151445 0.331851 0.0425192 0.136363 0.325308 0.00261595 0.120667 0.317685 
-0.0320139 0.095472 0.290262 -0.0662996 0.0696581 0.261548 -0.087172 0.0429334 0.229326 
-0.106852 0.0161278 0.196792 -0.114202 -0.00586364 0.170908 -0.120151 -0.0273079 0.14578 
-0.117808 -0.0424433 0.128416 -0.114308 -0.0566984 0.112135 -0.105866 -0.0656561 0.100523 
-0.096599 -0.0737309 0.0896887 -0.0849208 -0.0782702 0.0803927 -0.072772 -0.0821197 0.0713967 
-0.0601167 -0.0838976 0.0625215 -0.0473475 -0.0852093 0.0536735 -0.035151 -0.0852391 0.0449717 
-0.0231014 -0.0849402 0.0363073 -0.0118694 -0.0835353 0.0282861 -0.000873972 -0.0818102 0.0204511 
0.00955485 -0.0787657 0.0136035 0.0197999 -0.0752931 0.00707622 0.02983 -0.0701212 0.00159951 
0.0397824 -0.0643356 -0.00349781 0.0497345 -0.0564635 -0.00766383 0.0596866 -0.0477567 -0.0114573 
0.0696302 -0.0366334 -0.0145043 0.0795701 -0.0244439 -0.017222 0.089214 -0.00954126 -0.0193751 
0.172462 0.0926635 0.239313 0.159351 0.0997974 0.276187 0.14624 0.106931 0.31306 
0.110743 0.105484 0.336245 0.0747806 0.103859 0.359144 0.0295057 0.0915565 0.353921 
-0.0161651 0.0787999 0.347501 -0.0535801 0.0590174 0.318628 -0.0904564 0.0387769 0.288291 
-0.110632 0.0179914 0.253839 -0.129324 -0.00284248 0.219022 -0.133995 -0.019913 0.19112 
-0.137074 -0.0365558 0.164003 -0.131719 -0.0483962 0.14485 -0.125188 -0.0595664 0.126808 
-0.114316 -0.066827 0.113584 -0.102721 -0.073436 0.101162 -0.0894133 -0.0775535 0.0905264 
-0.0757707 -0.0811849 0.080239 -0.0620895 -0.0834149 0.0703803 -0.0483995 -0.0853296 0.0606181 
-0.0354506 -0.0863162 0.0512697 -0.0226917 -0.0870647 0.0420273 -0.0106868 -0.0868194 0.0336103 
0.00109985 -0.0862864 0.0254322 0.0125123 -0.0843635 0.0183438 0.0238033 -0.0819897 0.0116089 
0.0351118 -0.0777109 0.00596856 0.0464267 -0.0727441 0.000723449 0.057963 -0.0653995 -0.00358334 
0.0695878 -0.0571037 -0.00751479 0.0814108 -0.0460554 -0.0107125 0.0933212 -0.0337928 -0.0135865 
0.105149 -0.0184287 -0.0159202 0.177351 0.0499378 0.246505 0.162528 0.0519451 0.286139 
0.147704 0.0539524 0.325773 0.108335 0.0504115 0.351733 0.0684554 0.0467551 0.377409 
0.019483 0.0370584 0.372999 -0.0298762 0.0271048 0.36731 -0.0689835 0.0135628 0.337334 
-0.107422 -0.000213083 0.305775 -0.126996 -0.0138865 0.269748 -0.144894 -0.0275507 0.233323 
-0.147715 -0.0387116 0.203981 -0.148823 -0.0495879 0.175444 -0.14149 -0.0574628 0.154989 
-0.13298 -0.0649188 0.135662 -0.120603 -0.070074 0.121314 -0.107581 -0.0748456 0.107797 
-0.0933281 -0.0783159 0.0963449 -0.0788353 -0.0815323 0.0852959 -0.0645627 -0.0841224 0.074978 
-0.0503396 -0.0865717 0.0648246 -0.0368575 -0.0885293 0.0553035 -0.0235654 -0.0903608 0.0459446 
-0.0108372 -0.0913693 0.037521 0.00172779 -0.0921395 0.0293682 0.0142039 -0.0914742 0.0223311 
0.0266513 -0.0903433 0.015656 0.0394141 -0.0870919 0.010049 0.0522908 -0.0830749 0.00482765 
0.0656544 -0.0763628 0.000491888 0.0792127 -0.0685728 -0.00348966 0.0932172 -0.0576832 -0.00679677 
0.107419 -0.0454262 -0.00980635 0.12183 -0.0297005 -0.0123343 0.177411 0.00811457 0.247864 
0.161499 0.00507742 0.288271 0.145587 0.00204029 0.328678 0.104053 -0.00370194 0.355711 
0.061985 -0.0095005 0.382464 0.0112868 -0.0168387 0.378861 -0.0397784 -0.0242423 0.373965 
-0.0794731 -0.0318205 0.344315 -0.118426 -0.0394101 0.313051 -0.137447 -0.0462047 0.276983 
-0.154697 -0.0529285 0.240489 -0.156371 -0.0583401 0.210777 -0.156276 -0.0636026 0.181836 
-0.147807 -0.0675932 0.160759 -0.13817 -0.0714064 0.14078 -0.125011 -0.074469 0.125782 
-0.111265 -0.0774065 0.111614 -0.0966082 -0.0802039 0.0997189 -0.0817737 -0.0829739 0.0882678 
-0.0672762 -0.0859024 0.0778092 -0.0528545 -0.0888666 0.0675738 -0.039057 -0.0918174 0.0581573 
-0.0254197 -0.0947647 0.0489507 -0.0120538 -0.0971101 0.0407569 0.00123342 -0.0992813 0.0328563 
0.014809 -0.0999988 0.0260596 0.0284781 -0.100245 0.019621 0.042829 -0.0981417 0.0141792 
0.057426 -0.0951902 0.00909741 0.0728044 -0.0891909 0.00480173 0.0884954 -0.0819726 0.000820523 
0.10488 -0.0713015 -0.00258419 0.12157 -0.0591071 -0.00573457 0.138782 -0.0431487 -0.00848676 
0.170468 -0.0323999 0.240763 0.154372 -0.0403624 0.279062 0.138276 -0.0483249 0.31736 
0.0970515 -0.0564242 0.342996 0.0553038 -0.0645263 0.368367 0.00573922 -0.0698644 0.365557 