# vtk DataFile Version 3.0
vtk output
ASCII
DATASET RECTILINEAR_GRID
FIELD FieldData 2
base_index 1 3 int
34 68 34 
avtOriginalBounds 1 6 double
-3.33333 3.33333 3.33333 10 -3.33333 3.33333 
DIMENSIONS 34 34 34
X_COORDINATES 34 float
-3.33333 -3.13131 -2.92929 -2.72727 -2.52525 -2.32323 -2.12121 -1.91919 -1.71717 
-1.51515 -1.31313 -1.11111 -0.909091 -0.707071 -0.505051 -0.30303 -0.10101 0.10101 
0.30303 0.50505 0.70707 0.909091 1.11111 1.31313 1.51515 1.71717 1.91919 
2.12121 2.32323 2.52525 2.72727 2.92929 3.13131 3.33333 
Y_COORDINATES 34 float
3.33333 3.53535 3.73737 3.93939 4.14141 4.34343 4.54545 4.74747 4.94949 
5.15152 5.35354 5.55556 5.75758 5.9596 6.16162 6.36364 6.56566 6.76768 
6.9697 7.17172 7.37374 7.57576 7.77778 7.9798 8.18182 8.38384 8.58586 
8.78788 8.9899 9.19192 9.39394 9.59596 9.79798 10 
Z_COORDINATES 34 float
-3.33333 -3.13131 -2.92929 -2.72727 -2.52525 -2.32323 -2.12121 -1.91919 -1.71717 
-1.51515 -1.31313 -1.11111 -0.909091 -0.707071 -0.505051 -0.30303 -0.10101 0.10101 
0.30303 0.50505 0.70707 0.909091 1.11111 1.31313 1.51515 1.71717 1.91919 
2.12121 2.32323 2.52525 2.72727 2.92929 3.13131 3.33333 
POINT_DATA 39304
FIELD FieldData 1
grad 3 39304 float
0.255766 -0.197895 0.0432565 0.289774 -0.1783 0.0337989 0.322619 -0.161319 0.0246926 
0.354846 -0.145726 0.015773 0.388833 -0.135549 0.00709981 0.423842 -0.128515 -0.00143036 
0.456527 -0.128697 -0.0109057 0.487739 -0.133448 -0.0209795 0.494597 -0.146005 -0.0329965 
0.484657 -0.163946 -0.0463536 0.420122 -0.182533 -0.0593554 0.314642 -0.201605 -0.0720908 
0.1755 -0.204114 -0.0781423 0.00893013 -0.193129 -0.0787474 -0.126095 -0.165818 -0.0727395 
-0.233215 -0.124065 -0.0608814 -0.290922 -0.0822592 -0.0484238 -0.301191 -0.0404039 -0.0353908 
-0.289874 -0.00429658 -0.0239003 -0.256074 0.0258233 -0.0140168 -0.219152 0.05119 -0.00538807 
-0.178703 0.0711834 0.00182229 -0.139181 0.0873585 0.00781533 -0.100797 0.0988474 0.0123144 
-0.0636592 0.106133 0.0150929 -0.0281838 0.107813 0.0155774 0.00497737 0.104671 0.0139409 
0.0347828 0.0945363 0.00922906 0.0604486 0.0803842 0.00286918 0.079578 0.0598887 -0.00609284 
0.0935934 0.0378819 -0.0153098 0.0988016 0.0132722 -0.0249657 0.099773 -0.0100518 -0.0333772 
0.0927694 -0.0309559 -0.039446 0.273412 -0.217108 0.0575442 0.307146 -0.196131 0.0451271 
0.337439 -0.179775 0.0336332 0.365902 -0.165874 0.0226298 0.394599 -0.159951 0.0125579 
0.423432 -0.158661 0.00302687 0.448868 -0.167734 -0.00683784 0.472153 -0.18337 -0.0169139 
0.472923 -0.210017 -0.0283322 0.458165 -0.244257 -0.0406763 0.396996 -0.278685 -0.0525091 
0.30102 -0.313255 -0.0639583 0.177316 -0.323076 -0.0699756 0.0310185 -0.312733 -0.0715667 
-0.0891673 -0.278113 -0.0677597 -0.186254 -0.222017 -0.0591773 -0.241179 -0.165458 -0.0498267 
-0.255628 -0.108453 -0.0397384 -0.249986 -0.0599425 -0.0306566 -0.223417 -0.0202796 -0.0226233 
-0.19304 0.0122667 -0.015476 -0.158358 0.0367679 -0.00933035 -0.124279 0.0561365 -0.00415771 
-0.0909402 0.0692059 -0.000179232 -0.0589715 0.0778045 0.00246064 -0.0288298 0.0804419 0.00331568 
-0.00093259 0.078795 0.00269565 0.0237101 0.0709356 -6.32449e-05 0.0449286 0.0597588 -0.00386491 
0.0607405 0.043344 -0.00931306 0.0726003 0.0256335 -0.0148735 0.0776537 0.0056916 -0.0206274 
0.0794728 -0.0133739 -0.02553 0.0752036 -0.0307899 -0.0288301 0.293354 -0.227415 0.0754985 
0.325422 -0.204768 0.058679 0.351036 -0.188709 0.0438238 0.373221 -0.176152 0.0300122 
0.393801 -0.173272 0.0181981 0.413449 -0.176011 0.00754384 0.428689 -0.190186 -0.00255744 
0.441138 -0.211605 -0.0123085 0.434342 -0.243847 -0.0225975 0.414274 -0.283554 -0.0332575 
0.358848 -0.321792 -0.0432761 0.276904 -0.35893 -0.0528136 0.174771 -0.370444 -0.0584846 
0.0561861 -0.361082 -0.0610051 -0.0432611 -0.326653 -0.0596388 -0.125779 -0.270049 -0.0548341 
-0.17597 -0.21156 -0.0490786 -0.195126 -0.15126 -0.0424102 -0.196816 -0.0993068 -0.0359558 
-0.18031 -0.0560476 -0.0297244 -0.159107 -0.0205266 -0.0237334 -0.132594 0.0062469 -0.018014 
-0.105766 0.0273958 -0.0128769 -0.078551 0.0416417 -0.00845456 -0.0522607 0.0514225 -0.00509861 
-0.0272028 0.0552496 -0.00316455 -0.00401836 0.0552417 -0.00242744 0.0164496 0.049673 -0.0034259 
0.0341159 0.0412875 -0.00525531 0.0473586 0.0284544 -0.00839674 0.0574668 0.0144635 -0.0116621 
0.0621771 -0.0015212 -0.015141 0.0643503 -0.0169509 -0.0180344 0.0617479 -0.0313358 -0.0198258 
0.314234 -0.228544 0.0942798 0.343948 -0.205343 0.0723292 0.364252 -0.19034 0.0537018 
0.379557 -0.179693 0.0368401 0.391804 -0.179791 0.023182 0.402276 -0.186128 0.0113841 
0.407864 -0.20415 0.00104161 0.410359 -0.229573 -0.00837914 0.397072 -0.264853 -0.0176061 
0.3729 -0.306931 -0.0266994 0.323343 -0.346052 -0.0350759 0.254747 -0.382954 -0.0429148 
0.172532 -0.394996 -0.0482529 0.0792197 -0.386781 -0.0515533 -0.00103378 -0.354305 -0.0522851 
-0.0697353 -0.300368 -0.0507446 -0.114956 -0.243301 -0.0481299 -0.137635 -0.183231 -0.0444841 
-0.145574 -0.130738 -0.0403472 -0.138158 -0.0861357 -0.0356989 -0.125447 -0.0493169 -0.0306813 
-0.106752 -0.0212965 -0.0252465 -0.0869095 0.000933969 -0.0200191 -0.0656601 0.0160586 -0.0150464 
-0.0448598 0.026835 -0.0109021 -0.0246583 0.0318137 -0.00786238 -0.00593646 0.0333771 -0.00580866 
0.0106399 0.0299885 -0.00518472 0.0249934 0.0242115 -0.00525011 0.0358368 0.0146636 -0.00640391 
0.0442707 0.00406446 -0.00772242 0.0485548 -0.00834489 -0.00932461 0.0509176 -0.0204891 -0.0105827 
0.0496636 -0.032134 -0.0111929 0.337239 -0.208872 0.114936 0.363039 -0.187649 0.0862019 
0.376602 -0.175417 0.0628713 0.383663 -0.167962 0.0424113 0.387089 -0.170891 0.0266785 
0.388405 -0.17985 0.0136905 0.385573 -0.198873 0.00309621 0.380113 -0.224271 -0.00598208 
0.362771 -0.256792 -0.0142995 0.337233 -0.294226 -0.0220921 0.293831 -0.327591 -0.0292166 
0.23703 -0.357905 -0.03584 0.170988 -0.36783 -0.0408756 0.0974159 -0.361141 -0.0446173 
0.0328545 -0.334613 -0.0466705 -0.0237361 -0.290535 -0.04723 -0.0634519 -0.242491 -0.0467266 
-0.0869677 -0.19064 -0.045203 -0.0987037 -0.144185 -0.0426811 -0.0981689 -0.103349 -0.0391194 
-0.0924059 -0.069034 -0.0346613 -0.0807328 -0.0420906 -0.0291898 -0.0672766 -0.0203622 -0.0235868 
-0.051632 -0.00503414 -0.0178224 -0.0358948 0.00631498 -0.0127259 -0.0200341 0.0123587 -0.00851996 
-0.00520775 0.0153402 -0.00524155 0.00811898 0.0138812 -0.00330808 0.0197019 0.0102988 -0.00208145 
0.0285316 0.00336346 -0.0019709 0.0354659 -0.00458723 -0.00213186 0.039136 -0.0142866 -0.00276041 
0.0413152 -0.0239392 -0.0032304 0.0406879 -0.0335039 -0.00340193 0.35761 -0.177993 0.132749 
0.379229 -0.161025 0.0975467 0.386203 -0.153155 0.0698502 0.385398 -0.150118 0.0461411 
0.380719 -0.156539 0.0286075 0.37379 -0.168451 0.0146597 0.363658 -0.188508 0.00395903 
0.351496 -0.213724 -0.00468501 0.331053 -0.243424 -0.0120788 0.304898 -0.276216 -0.0186103 
0.267328 -0.30413 -0.0245245 0.221199 -0.328384 -0.0299757 0.16949 -0.336474 -0.0346006 
0.113237 -0.331394 -0.0385521 0.0625893 -0.310662 -0.0415505 0.0168996 -0.276084 -0.0437058 
-0.0175798 -0.237007 -0.0448308 -0.0412971 -0.19361 -0.0449669 -0.0559522 -0.153597 -0.0437078 
-0.0611674 -0.11711 -0.0409954 -0.061373 -0.0858193 -0.0369601 -0.0559158 -0.0604043 -0.0314292 
-0.048193 -0.03953 -0.0254784 -0.0376896 -0.0242283 -0.0190124 -0.0266302 -0.0124916 -0.01307 
-0.0148295 -0.00550817 -0.00782587 -0.00365968 -0.00124792 -0.00346306 0.00659523 -0.00093629 -0.0003782 
0.0155415 -0.00251766 0.00196715 0.0224216 -0.00708799 0.00314487 0.0278695 -0.0126521 0.00393815 
0.0308508 -0.0199278 0.00406936 0.0327312 -0.0273554 0.00418465 0.032539 -0.0350687 0.00426996 
0.371397 -0.119098 0.143453 0.388163 -0.112081 0.102571 0.388934 -0.112547 0.0713528 
0.381207 -0.11699 0.0452675 0.370209 -0.128553 0.0266178 0.357314 -0.144249 0.0122856 
0.342681 -0.165421 0.00184232 0.32695 -0.190062 -0.00613802 0.305791 -0.216786 -0.012573 
0.280889 -0.244947 -0.0179422 0.248349 -0.268168 -0.0227504 0.210081 -0.287683 -0.0271377 
0.16811 -0.294646 -0.0310815 0.123122 -0.291382 -0.0346638 0.0819401 -0.276066 -0.0376668 
0.0441259 -0.250087 -0.0401575 0.0142114 -0.219835 -0.0417038 -0.00811921 -0.18548 -0.0423434 
-0.0234979 -0.152923 -0.0414667 -0.0316349 -0.122238 -0.0390103 -0.0353619 -0.0952747 -0.0350561 
-0.0341038 -0.0725169 -0.0294085 -0.0304827 -0.0533766 -0.0231796 -0.0239615 -0.0386759 -0.0162373 
-0.0166166 -0.0270142 -0.00971488 -0.00817348 -0.0194047 -0.00375251 -6.3172e-05 -0.0142136 0.00134393 
0.00756455 -0.0125291 0.00518479 0.0142087 -0.0125931 0.00821564 0.0192999 -0.0154176 0.00996752 
0.0232944 -0.0192499 0.0112067 0.0254001 -0.0248178 0.011563 0.0266933 -0.0306863 0.0117566 
0.026457 -0.0371207 0.0116441 0.377909 -0.0547933 0.147087 0.390352 -0.0587597 0.102425 
0.385942 -0.0683568 0.0689979 0.372578 -0.0809451 0.0415398 0.356552 -0.098159 0.0224487 
0.33898 -0.118059 0.00821601 0.321003 -0.14076 -0.00163989 0.302771 -0.165236 -0.00872378 
0.281575 -0.189555 -0.0140369 0.258336 -0.213767 -0.0181288 0.23062 -0.233011 -0.02172 
0.199547 -0.24853 -0.0249357 0.166303 -0.254669 -0.0280331 0.131289 -0.253167 -0.0310341 
0.0985476 -0.242791 -0.0337744 0.0678157 -0.224566 -0.0362843 0.0421551 -0.202366 -0.0379474 
0.021363 -0.176352 -0.0387976 0.00565338 -0.150783 -0.0380787 -0.00476198 -0.125677 -0.0357251 
-0.0113727 -0.102947 -0.031773 -0.0136826 -0.0829024 -0.0260137 -0.0136176 -0.0655899 -0.0195529 
-0.010638 -0.0516307 -0.0122312 -0.00664329 -0.0401912 -0.00523542 -0.00129498 -0.0321112 0.00132572 
0.00396522 -0.0261521 0.00703687 0.00909766 -0.023268 0.0115155 0.0135318 -0.0219969 0.0151119 
0.0168632 -0.0232725 0.0173152 0.0194028 -0.0255694 0.018876 0.0205784 -0.0296254 0.0193302 
0.0212104 -0.0341151 0.0194798 0.0208188 -0.0394215 0.019056 0.364275 0.0244934 0.131143 
0.373862 0.00667918 0.0879574 0.367103 -0.014245 0.0559607 0.35166 -0.0368214 0.0299081 
0.334175 -0.0610981 0.0122441 0.315503 -0.0863622 -0.000549245 0.297382 -0.11174 -0.00890354 
0.27961 -0.13719 -0.0144464 0.260258 -0.160684 -0.018186 0.239817 -0.182829 -0.020682 
0.216356 -0.200082 -0.0227491 0.190631 -0.213664 -0.0244947 0.163315 -0.219822 -0.0262881 
0.134703 -0.219929 -0.0281203 0.107558 -0.21318 -0.0298577 0.0817117 -0.200365 -0.0315113 
0.0594434 -0.184079 -0.0324484 0.0406103 -0.164461 -0.0326975 0.025657 -0.144583 -0.0315145 
0.0147453 -0.124436 -0.0288397 0.0070169 -0.105682 -0.024671 0.00288688 -0.0885049 -0.0188135 
0.000906619 -0.0732801 -0.0122489 0.00156469 -0.0604518 -0.00481637 0.00321841 -0.0496416 0.00235757 
0.00619965 -0.0415221 0.00918668 0.00918955 -0.0352457 0.0151831 0.012192 -0.031642 0.0199722 
0.0146711 -0.029541 0.0238019 0.0163238 -0.0298125 0.0261168 0.0174042 -0.0311181 0.0276548 
0.017499 -0.0342047 0.0278549 0.0172644 -0.037815 0.0276216 0.0164098 -0.0424112 0.0265723 
0.344718 0.100502 0.109045 0.351586 0.0701769 0.0688253 0.343109 0.0386938 0.0393431 
0.32648 0.00659519 0.0155653 0.308504 -0.0245891 -5.78365e-05 0.289748 -0.0552425 -0.010946 
0.272386 -0.0834391 -0.0174513 0.255907 -0.11008 -0.0211808 0.238937 -0.133032 -0.0231264 
0.221628 -0.153441 -0.0238417 0.202403 -0.169 -0.0242245 0.181741 -0.180923 -0.0243579 
0.15989 -0.18715 -0.02471 0.137072 -0.188737 -0.0252404 0.115005 -0.185261 -0.0258425 
0.0936044 -0.177304 -0.0265081 0.074498 -0.166367 -0.0266004 0.0575946 -0.152568 -0.0261424 
0.0435152 -0.137929 -0.024412 0.0323775 -0.122416 -0.0213562 0.0238411 -0.107435 -0.0169332 
0.0182455 -0.0930582 -0.0109647 0.0145524 -0.0799219 -0.00429887 0.0131942 -0.0683085 0.00322278 
0.0127715 -0.0582378 0.010546 0.0135963 -0.0502239 0.0176047 0.0144873 -0.0437813 0.0238446 
0.0154742 -0.0396171 0.0288974 0.0160816 -0.036842 0.0329086 0.0160896 -0.0362603 0.0352751 
0.0157245 -0.0367157 0.0367255 0.0147168 -0.0389573 0.036598 0.0135834 -0.0417975 0.035909 
0.0122132 -0.0457643 0.034163 0.306897 0.166401 0.067975 0.311474 0.127689 0.0353109 
0.303222 0.0880157 0.0116859 0.288154 0.0478311 -0.00713719 0.27268 0.0102181 -0.0188263 
0.25697 -0.0259016 -0.0263731 0.243153 -0.0573558 -0.0299584 0.230534 -0.085855 -0.0310349 
0.217603 -0.109139 -0.0305067 0.204458 -0.128827 -0.0288718 0.189409 -0.143616 -0.0270758 
0.172933 -0.154732 -0.025159 0.155121 -0.161191 -0.0236469 0.13622 -0.163854 -0.0224647 
0.117632 -0.162557 -0.0215232 0.0993203 -0.157758 -0.0207946 0.0826656 -0.150428 -0.0196766 
0.0676018 -0.140669 -0.0181845 0.0547583 -0.129873 -0.0156497 0.0442276 -0.117995 -0.0120288 
0.0358387 -0.106161 -0.00723517 0.0298708 -0.0943765 -0.00111586 0.0254898 -0.0833309 0.00564307 
0.0230563 -0.0731916 0.013187 0.0213733 -0.0642002 0.0205705 0.020691 -0.0567396 0.0277401 
0.0200115 -0.050596 0.0340946 0.0193357 -0.0463621 0.0392672 0.0183283 -0.0433938 0.0433001 
0.0167971 -0.0424238 0.0455335 0.0150286 -0.0424642 0.046696 0.0128514 -0.0442445 0.0460141 
0.0107191 -0.0466514 0.0446451 0.00867143 -0.050238 0.0419828 0.267966 0.226309 0.0244928 
0.269433 0.180895 -0.000565665 0.261016 0.134148 -0.0181213 0.247348 0.086694 -0.0316909 
0.234612 0.0431274 -0.039169 0.222416 0.00181811 -0.04311 0.212707 -0.0327343 -0.0435337 
0.204575 -0.0630072 -0.0417298 0.196112 -0.0865909 -0.0385141 0.187422 -0.105561 -0.0343248 
0.176593 -0.119609 -0.0301863 0.16416 -0.129965 -0.0260858 0.150139 -0.136628 -0.0226175 
0.134824 -0.140281 -0.0196645 0.119419 -0.140981 -0.017147 0.103934 -0.13907 -0.0150149 
0.0895615 -0.135055 -0.0126882 0.0762567 -0.12902 -0.0101747 0.0646457 -0.121798 -0.00684614 
0.0547992 -0.113339 -0.00266844 0.0466738 -0.104504 0.00249468 0.0404939 -0.095242 0.00877174 
0.0355933 -0.0862687 0.015633 0.0322626 -0.0776494 0.0232112 0.0294869 -0.0698109 0.0306645 
0.0274511 -0.0630133 0.0379513 0.0253352 -0.0572846 0.0444228 0.0231033 -0.0531058 0.0497121 
0.0205681 -0.0500611 0.0537585 0.0175543 -0.0488073 0.0558423 0.0144249 -0.0485222 0.0566961 
0.0110962 -0.0499058 0.0554316 0.00797491 -0.0519291 0.0533555 0.00524372 -0.0551567 0.0497518 
0.225201 0.265522 -0.0273223 0.220729 0.219223 -0.0446028 0.210802 0.169263 -0.0553553 
0.197977 0.117359 -0.0626397 0.188793 0.06948 -0.0649499 0.181724 0.0239375 -0.0643718 
0.178074 -0.0131625 -0.060799 0.176589 -0.0449156 -0.0553296 0.174074 -0.0686874 -0.0486883 
0.170847 -0.086955 -0.0412386 0.164389 -0.100358 -0.0341917 0.155506 -0.110114 -0.0274467 
0.144422 -0.116888 -0.0217045 0.131545 -0.121234 -0.0167794 0.118304 -0.123299 -0.0125743 
0.104741 -0.123345 -0.00900613 0.0920648 -0.121632 -0.00547719 0.0802401 -0.118232 -0.00198592 
0.0698499 -0.113662 0.00210015 0.0609541 -0.107875 0.00680581 0.0534934 -0.101526 0.0123344 
0.047655 -0.0945427 0.0187932 0.0428161 -0.0875787 0.0257886 0.0392038 -0.0806385 0.0334424 
0.0359142 -0.0742062 0.0409984 0.0330551 -0.068451 0.048424 0.0299668 -0.0635376 0.0550211 
0.0265464 -0.0598449 0.0604168 0.0227845 -0.0571275 0.0644481 0.0184835 -0.0559502 0.0663252 
0.0141397 -0.0556499 0.0667984 0.00972234 -0.0568598 0.0648538 0.00564557 -0.0586707 0.061977 
0.00220997 -0.0616131 0.0573452 0.183619 0.299905 -0.0800848 0.172191 0.253478 -0.0898454 
0.16005 0.201081 -0.0937831 0.14753 0.145514 -0.0946274 0.141818 0.0940335 -0.0916201 
0.140057 0.0449262 -0.0863764 0.142804 0.00572478 -0.0786537 0.148406 -0.0272029 -0.0693609 
0.15211 -0.0510675 -0.0591254 0.154507 -0.0686817 -0.0482396 0.152398 -0.0815484 -0.038163 
0.14691 -0.0908544 -0.0286932 0.138573 -0.0978351 -0.0206479 0.127914 -0.102921 -0.0137634 
0.11665 -0.106327 -0.00790878 0.10485 -0.108247 -0.0029652 0.0937563 -0.108724 0.00170011 
0.0833396 -0.107815 0.00609828 0.0741346 -0.105766 0.0108798 0.0661919 -0.102528 0.0160607 
0.0594239 -0.0985734 0.021914 0.0539838 -0.0938098 0.0285275 0.0492784 -0.088828 0.0356354 
0.0454747 -0.0835785 0.04335 0.0417675 -0.0785856 0.0509936 0.038189 -0.0739349 0.0585427 
0.0342308 -0.0699057 0.0652507 0.0297222 -0.0667775 0.0707393 0.0248273 -0.0644584 0.0747466 
0.0193223 -0.063417 0.0764149 0.0138379 -0.0631465 0.0765124 0.00838912 -0.0642034 0.0739043 
0.00340423 -0.0658103 0.0702499 -0.000707385 -0.0684525 0.0646258 0.146653 0.31545 -0.136542 
0.124296 0.271848 -0.13979 0.107197 0.220041 -0.136867 0.0928914 0.163876 -0.130667 
0.0903287 0.11157 -0.121758 0.0945847 0.0615051 -0.111278 0.10505 0.0219426 -0.0988066 
0.119448 -0.0109685 -0.085075 0.130438 -0.0345539 -0.0705882 0.139078 -0.0517077 -0.0555806 
0.14124 -0.0644576 -0.0420011 0.138543 -0.0739047 -0.0294927 0.132208 -0.0814581 -0.0190309 
0.122909 -0.0874687 -0.0102366 0.112892 -0.0921299 -0.00288127 0.10224 -0.0955976 0.00320108 
0.0922825 -0.0978203 0.00874582 0.0829916 -0.098848 0.0137745 0.0748327 -0.0988018 0.0190096 
0.067853 -0.097637 0.02446 0.0618869 -0.0957179 0.0304794 0.0570668 -0.0929461 0.037142 
0.0527752 -0.089841 0.0442781 0.049132 -0.086327 0.0519952 0.045382 -0.082903 0.0596675 
0.0414895 -0.0795992 0.0672802 0.0370611 -0.0767224 0.0740424 0.0318556 -0.0744648 0.0795714 
0.026193 -0.0728212 0.0835195 0.0198085 -0.072147 0.0849715 0.013471 -0.0720821 0.0847121 
0.00721454 -0.0730667 0.0815051 0.00150607 -0.0745021 0.0771636 -0.00317084 -0.076786 0.0706867 
0.111424 0.324703 -0.193489 0.077589 0.284459 -0.190122 0.0552025 0.234239 -0.180064 
0.0388982 0.178719 -0.166452 0.0393757 0.126842 -0.151395 0.0495977 0.0770809 -0.135499 
0.0676796 0.0379449 -0.1182 0.0907395 0.00553816 -0.100013 0.108859 -0.0176875 -0.081304 
0.12357 -0.0345814 -0.0622354 0.129863 -0.0474468 -0.0452362 0.129842 -0.0572908 -0.0297891 
0.125424 -0.0655847 -0.0170144 0.117424 -0.0726156 -0.00641718 0.108603 -0.0785635 0.00233211 
0.0990553 -0.0835534 0.00944668 0.0901969 -0.0874684 0.0157696 0.0820005 -0.0903515 0.0213326 
0.0748655 -0.0922241 0.0269355 0.0688363 -0.0930443 0.03258 0.0636707 -0.0930826 0.0386985 
0.0594815 -0.092237 0.0453528 0.0556262 -0.0909595 0.0524611 0.0521809 -0.0891517 0.0601263 
0.0484374 -0.0872821 0.0677708 0.0442962 -0.0853301 0.0753875 0.0394728 -0.0836182 0.0821485 
0.03366 -0.0822544 0.0876688 0.0273227 -0.0813077 0.0915252 0.0201571 -0.0810198 0.0927547 
0.0130587 -0.0811734 0.0921534 0.00607613 -0.0820874 0.0883991 -0.000286491 -0.0833471 0.0834354 
-0.00548219 -0.0852575 0.0761951 0.0839206 0.305991 -0.252615 0.0361571 0.27148 -0.242179 
0.00701817 0.227276 -0.223763 -0.0122263 0.177923 -0.201108 -0.0091965 0.13205 -0.178802 
0.00676683 0.0881985 -0.156699 0.0320133 0.0529898 -0.134219 0.0631392 0.0232552 -0.111501 
0.0876909 0.000746703 -0.0886996 0.107709 -0.0167782 -0.0658408 0.117513 -0.030791 -0.0457914 
0.119657 -0.0421697 -0.0278491 0.11678 -0.0519493 -0.0132224 0.109811 -0.060426 -0.00129733 
0.101957 -0.0678006 0.00837172 0.0933187 -0.0742003 0.016045 0.0853929 -0.0795688 0.0226962 
0.078151 -0.0839474 0.0283661 0.0719415 -0.087363 0.0339547 0.0668074 -0.0897757 0.0394587 
0.0624356 -0.0914262 0.045379 0.0589257 -0.0922153 0.05177 0.0556079 -0.0925463 0.0586014 
0.052526 -0.0923151 0.0659731 0.0490079 -0.0919354 0.0733382 0.0449082 -0.0913576 0.0806943 
0.0400241 -0.0908657 0.0872083 0.0340026 -0.0904981 0.0925014 0.0274039 -0.0903445 0.0961217 
0.0198941 -0.0905285 0.0971006 0.0124444 -0.0909575 0.0962241 0.00509844 -0.0918082 0.0921522 
-0.00160979 -0.0928735 0.0868541 -0.00711758 -0.0943426 0.0792476 0.0587142 0.279005 -0.30909 
-0.00242604 0.250933 -0.291633 -0.0379841 0.213884 -0.264899 -0.0599514 0.172065 -0.233236 
-0.0546221 0.133373 -0.203715 -0.0334431 0.0964949 -0.175438 -0.00181669 0.0659428 -0.147935 
0.0364265 0.0393969 -0.120924 0.0667076 0.0179042 -0.0943618 0.0914977 -0.000103459 -0.0681095 
0.104567 -0.0151714 -0.0453419 0.108845 -0.0280344 -0.0251879 0.107535 -0.039245 -0.00892953 
0.101672 -0.049109 0.00415469 0.0948357 -0.0578399 0.0146011 0.087138 -0.0655685 0.0227141 
0.080159 -0.0723023 0.0295886 0.0738698 -0.0780811 0.035274 0.0685791 -0.0829441 0.0407678 
0.0643285 -0.086853 0.046062 0.0607411 -0.0900245 0.0517203 0.0579033 -0.0923624 0.0577902 
0.0551233 -0.094224 0.0642858 0.0524141 -0.095501 0.0713037 0.0491426 -0.0965515 0.078326 
0.0451211 -0.0973 0.0853543 0.0402256 -0.0979881 0.0915591 0.034063 -0.0985889 0.0965699 
0.0272776 -0.099207 0.0999173 0.0195091 -0.0998526 0.100638 0.0117905 -0.100551 0.0995024 
0.00415766 -0.101341 0.095169 -0.00283012 -0.102216 0.0896055 -0.00860378 -0.103252 0.0817269 
0.0452806 0.20961 -0.351981 -0.0264098 0.191607 -0.327745 -0.066679 0.167547 -0.292897 
-0.0902556 0.140271 -0.252411 -0.0839224 0.114783 -0.215849 -0.0602221 0.0903333 -0.181563 
-0.0262369 0.0681742 -0.149849 0.014262 0.0474655 -0.119762 0.0466695 0.028519 -0.0911403 
0.0734966 0.0107878 -0.0635278 0.0885676 -0.00486228 -0.0397437 0.0948215 -0.0189514 -0.0188309 
0.0952168 -0.0313118 -0.00206951 0.0908386 -0.0422634 0.0113093 0.0852817 -0.05199 0.0218035 
0.0786821 -0.0606327 0.029746 0.0727221 -0.0682799 0.0363058 0.0673761 -0.0749713 0.0415382 
0.0629701 -0.0807913 0.0465244 0.0595433 -0.0857033 0.0512541 0.0566915 -0.0899277 0.0563232 
0.0544896 -0.0933745 0.0617759 0.052249 -0.0963672 0.0676338 0.0499608 -0.0988024 0.0739888 
0.0470439 -0.100978 0.0803442 0.0432887 -0.102806 0.0867 0.0386347 -0.10447 0.0922763 
0.0326774 -0.105895 0.0967223 0.0260877 -0.107177 0.0996091 0.0184992 -0.108231 0.100034 
0.0109333 -0.10917 0.0987202 0.00340611 -0.109912 0.0944115 -0.00352278 -0.11062 0.0889372 
-0.00932549 -0.111263 0.081269 0.0342716 0.13681 -0.38777 -0.0464702 0.128893 -0.357667 
-0.0908347 0.117909 -0.315782 -0.115874 0.105296 -0.267637 -0.108978 0.0930262 -0.224887 
-0.0835399 0.0809562 -0.18527 -0.0480545 0.0672755 -0.149853 -0.00620574 0.0525745 -0.117096 
0.0276374 0.036491 -0.0867631 0.0559595 0.0194539 -0.0581018 0.0727042 0.00359126 -0.0335531 
0.0807661 -0.0113906 -0.012089 0.0827801 -0.0246405 0.00501396 0.0798663 -0.0364792 0.0185632 
0.0755785 -0.0470334 0.0290053 0.0700751 -0.0564512 0.0366987 0.0651276 -0.0648844 0.0428795 
0.0607136 -0.0723723 0.0476085 0.057178 -0.079039 0.0520448 0.0545572 -0.0848503 0.0561762 
0.052424 -0.0900283 0.0606252 0.0508421 -0.0944903 0.0654331 0.0491302 -0.0985245 0.0706248 
0.0472589 -0.102034 0.0762875 0.044701 -0.105255 0.0819459 0.0412276 -0.108091 0.0875984 
0.0368393 -0.110667 0.0925188 0.0311242 -0.112864 0.0963776 0.0247718 -0.114767 0.0987909 
0.0174132 -0.116206 0.0989219 0.0100488 -0.117374 0.0974427 0.00267464 -0.118074 0.0931904 
-0.0041531 -0.118627 0.0878441 -0.00995228 -0.118902 0.0804382 0.0378102 0.043582 -0.38095 
-0.0429908 0.0458546 -0.350459 -0.0877548 0.0484589 -0.307992 -0.113374 0.0512394 -0.259164 
-0.108566 0.0522708 -0.215355 -0.0860915 0.0522865 -0.174462 -0.0542567 0.0475965 -0.138401 
-0.016494 0.0399264 -0.1054 0.0146415 0.0286065 -0.0754521 0.0412063 0.0147696 -0.04761 
0.0576558 0.000911696 -0.0238084 0.0665187 -0.0129621 -0.00303713 0.0696327 -0.02554 0.0134382 
0.0680623 -0.0370622 0.0264131 0.0649806 -0.0474367 0.0362034 0.0605619 -0.056796 0.0431765 
0.0565873 -0.0652509 0.0485928 0.0530389 -0.0728374 0.0525146 0.0502871 -0.0796897 0.0561471 
0.0483651 -0.085777 0.0594782 0.0468488 -0.0913137 0.0631219 0.0457911 -0.096228 0.0671188 
0.0445442 -0.100767 0.0714737 0.043065 -0.104844 0.076268 0.0408921 -0.108636 0.0810489 
0.0377941 -0.112049 0.0858122 0.0338168 -0.115152 0.0899124 0.0285647 -0.117808 0.093051 
0.0227005 -0.120086 0.0949136 0.01587 -0.121768 0.0947611 0.00900042 -0.123088 0.0931932 
0.0020637 -0.123783 0.0891877 -0.00440934 -0.124256 0.0842018 -0.0100096 -0.124312 0.0773703 
0.0424658 -0.0455616 -0.369215 -0.0373523 -0.0339489 -0.338992 -0.0820848 -0.0187857 -0.296779 
-0.108178 -0.00173622 -0.248197 -0.105642 0.0116764 -0.204081 -0.0864832 0.0229772 -0.162558 
-0.0586265 0.0267942 -0.126296 -0.0252612 0.0258714 -0.0933659 0.00288516 0.0192519 -0.064005 
0.0274322 0.00870357 -0.0371056 0.043355 -0.00301267 -0.0141465 0.0528097 -0.0156049 0.00585746 
0.0568684 -0.0273552 0.0216478 0.0565302 -0.0384196 0.0340047 0.0545763 -0.0484896 0.0431175 
0.0511932 -0.0576799 0.0493605 0.0481512 -0.0660549 0.0540119 0.0454369 -0.0736471 0.0571354 
0.0434392 -0.0805975 0.0599744 0.042188 -0.0868792 0.0625171 0.0412634 -0.0926966 0.0653661 
0.0407078 -0.097989 0.0685612 0.0399085 -0.10296 0.0720876 0.03881 -0.107537 0.0760205 
0.0370154 -0.111836 0.0799317 0.0342929 -0.115763 0.0838139 0.0307305 -0.119339 0.0871028 
0.0259504 -0.122407 0.0895316 0.0205854 -0.125025 0.0908534 0.0142972 -0.126929 0.0904271 
0.00793733 -0.128389 0.0887795 0.00145417 -0.129083 0.0850285 -0.00464822 -0.129486 0.0804113 
-0.0100339 -0.129344 0.0741634 0.0551269 -0.105433 -0.322253 -0.0162393 -0.0905709 -0.297009 
-0.0578525 -0.0702257 -0.261036 -0.083659 -0.0469676 -0.219363 -0.0847138 -0.0277639 -0.180315 
-0.0713963 -0.0109145 -0.142791 -0.0498637 -0.00205861 -0.109508 -0.0231281 0.00173457 -0.0789104 
1.25386e-05 -0.00063895 -0.0515829 0.0206738 -0.0072654 -0.0265106 0.0344125 -0.0158581 -0.00507791 
0.0429594 -0.0259254 0.0136251 0.0468501 -0.0357325 0.0283187 0.0469471 -0.0453274 0.0397456 
0.0455598 -0.0541978 0.0479969 0.0428595 -0.0624273 0.053439 0.0404626 -0.0699945 0.0573228 
0.0383569 -0.0769261 0.0597106 0.0369001 -0.0833483 0.0618301 0.0361191 -0.0892399 0.0636701 
0.0356052 -0.0947782 0.0658006 0.0353932 -0.0999172 0.0682594 0.0349169 -0.104807 0.0710164 
0.034116 -0.10939 0.0741392 0.0326529 -0.113726 0.0772351 0.0303066 -0.117732 0.0802951 
0.0271862 -0.121391 0.0828377 0.0229434 -0.124546 0.0846302 0.018157 -0.127243 0.0854829 
0.0125123 -0.129215 0.0848519 0.0067687 -0.130727 0.0831884 0.00085464 -0.131447 0.0797471 
-0.00476272 -0.131853 0.0755578 -0.00982159 -0.131667 0.0699604 0.0674805 -0.160276 -0.27516 
0.00468251 -0.142813 -0.254826 -0.0336754 -0.118111 -0.225069 -0.0590494 -0.0895643 -0.190306 
-0.0635514 -0.0653261 -0.156405 -0.0559341 -0.0435899 -0.123006 -0.0406134 -0.0301811 -0.092815 
-0.0204138 -0.0220463 -0.0646568 -0.00224457 -0.0204335 -0.0394379 0.0145245 -0.0233185 -0.0162462 
0.0260331 -0.0288915 0.00361923 0.0335961 -0.0364803 0.02099 0.0372481 -0.0443565 0.034572 
0.0377133 -0.0524667 0.0450669 0.0368392 -0.0601132 0.0524722 0.0347802 -0.0673493 0.0571444 
0.0329916 -0.0740748 0.0602972 0.0314625 -0.08031 0.0619913 0.0305163 -0.0861681 0.0634302 
0.0301771 -0.0916333 0.0646032 0.0300486 -0.0968558 0.0660472 0.0301581 -0.101804 0.0677975 
0.0299863 -0.106575 0.0698112 0.0294691 -0.111129 0.0721483 0.0283257 -0.115467 0.074453 
0.0263474 -0.119518 0.0767144 0.0236615 -0.123229 0.0785332 0.0199496 -0.126446 0.0797099 
0.0157356 -0.129202 0.0801102 0.0107289 -0.131227 0.0792845 0.00559718 -0.132783 0.0776109 
0.00025001 -0.133529 0.0744768 -0.00488258 -0.133941 0.0707106 -0.00961126 -0.133722 0.0657546 
0.0771286 -0.170864 -0.22691 0.0239226 -0.156511 -0.210877 -0.00998475 -0.134719 -0.187129 
-0.0336396 -0.108976 -0.159281 -0.0403293 -0.0863612 -0.131225 -0.0371681 -0.0655625 -0.103049 
-0.0270729 -0.0518765 -0.0769548 -0.012586 -0.0426952 -0.0521795 0.000914732 -0.0393807 -0.0297327 
0.0137355 -0.0401124 -0.00889179 0.0226082 -0.0435791 0.00904782 0.02852 -0.0490972 0.0248114 
0.031309 -0.0551519 0.0371492 0.0315536 -0.0616439 0.0466955 0.0307223 -0.0678519 0.0533922 
0.0289393 -0.0738086 0.0575679 0.0274363 -0.0793923 0.0603116 0.026202 -0.084618 0.0616805 
0.0255 -0.0895955 0.0627808 0.0253525 -0.0943145 0.0636013 0.0253854 -0.0988982 0.0646403 
0.0256224 -0.103329 0.0659262 0.0255926 -0.107655 0.0674272 0.0252355 -0.111854 0.0691923 
0.0243099 -0.115883 0.0709176 0.0226261 -0.119686 0.0725899 0.0203083 -0.123184 0.0738822 
0.017071 -0.126243 0.0746233 0.013376 -0.128877 0.0747165 0.00895832 -0.13084 0.0737868 
0.00440028 -0.132365 0.0721522 -0.000399518 -0.133134 0.0693037 -0.00504966 -0.13358 0.0659191 
-0.00941807 -0.133416 0.0615252 0.0861489 -0.179438 -0.179803 0.0423665 -0.168291 -0.167921 
0.0128906 -0.149577 -0.149992 -0.00898487 -0.126844 -0.12885 -0.0177127 -0.106066 -0.106502 
-0.0188064 -0.0864222 -0.0834533 -0.0137499 -0.0726577 -0.0614071 -0.00479832 -0.0626167 -0.039996 
0.0041589 -0.057761 -0.0203156 0.01312 -0.0564815 -0.00182898 0.0194047 -0.0579496 0.0141806 
0.0236822 -0.0614782 0.0283325 0.0256098 -0.065769 0.0394286 0.0256226 -0.0706807 0.0480348 
0.0248203 -0.0754781 0.0540396 0.0232968 -0.0801744 0.0577432 0.0220621 -0.0846305 0.0601052 
0.0211048 -0.088856 0.0611791 0.0206294 -0.0929582 0.0619698 0.0206559 -0.096932 0.0624653 
0.0208344 -0.100875 0.063125 0.0211846 -0.104782 0.0639701 0.0212842 -0.108656 0.0649812 
0.0210764 -0.11249 0.0661961 0.0203584 -0.1162 0.0673633 0.0189599 -0.119744 0.068467 
0.0170006 -0.123021 0.0692515 0.0142278 -0.125911 0.0695731 0.0110415 -0.128416 0.0693719 
0.0072024 -0.130311 0.0683451 0.0032086 -0.131801 0.0667526 -0.0010516 -0.132592 0.064186 
-0.00522512 -0.133071 0.0611768 -0.00923547 -0.132964 0.0573347 0.0881082 -0.165349 -0.145553 
0.0518529 -0.158493 -0.136133 0.0265938 -0.144747 -0.121897 0.00717654 -0.127341 -0.105103 
-0.00190786 -0.1108 -0.0869165 -0.00499243 -0.0947614 -0.0679219 -0.00287452 -0.0831549 -0.0493772 
0.00253831 -0.0743554 -0.0311175 0.00835758 -0.0697633 -0.0141401 0.0144572 -0.0680728 0.00195301 
0.018691 -0.068751 0.0159864 0.0215254 -0.0712056 0.0284749 0.0226089 -0.0743789 0.0383583 
0.0222656 -0.0781377 0.0461188 0.0213354 -0.081839 0.0516217 0.0198859 -0.0854893 0.0551274 
0.018726 -0.0889765 0.0574155 0.0178441 -0.092307 0.0585349 0.0173965 -0.095593 0.0593412 
0.0174013 -0.0988326 0.0598215 0.0175458 -0.102109 0.0603908 0.0178482 -0.105426 0.0610608 
0.0179343 -0.108762 0.0618383 0.017755 -0.112122 0.0627477 0.0171307 -0.115399 0.0635955 
0.0159132 -0.118567 0.0643611 0.0142043 -0.121514 0.0648487 0.0117829 -0.124141 0.064933 
0.00899028 -0.126433 0.0645792 0.00561179 -0.128198 0.063534 0.00207554 -0.129605 0.0620179 
-0.00173242 -0.130393 0.0596909 -0.00549495 -0.130897 0.0569892 -0.00917197 -0.130863 0.0535823 
0.0896945 -0.151053 -0.112064 0.0608359 -0.148401 -0.10504 0.0397463 -0.139544 -0.0944002 
0.0227839 -0.12739 -0.0818388 0.0134046 -0.115048 -0.0677189 0.0084283 -0.102598 -0.0526942 
0.00771513 -0.0931622 -0.0375909 0.00970196 -0.0856353 -0.0224379 0.0124738 -0.081348 -0.00813119 
0.0157871 -0.0792949 0.00559188 0.0180209 -0.0792283 0.017667 0.019445 -0.0806516 0.0285063 