# vtk DataFile Version 2.0
vtk output
ASCII
DATASET RECTILINEAR_GRID
DIMENSIONS 34 34 34
X_COORDINATES 34 float
3.33333 3.53535 3.73737 3.93939 4.14141 4.34343 4.54545 4.74747 4.94949 
5.15152 5.35354 5.55556 5.75758 5.9596 6.16162 6.36364 6.56566 6.76768 
6.9697 7.17172 7.37374 7.57576 7.77778 7.9798 8.18182 8.38384 8.58586 
8.78788 8.9899 9.19192 9.39394 9.59596 9.79798 10 
Y_COORDINATES 34 float
3.33333 3.53535 3.73737 3.93939 4.14141 4.34343 4.54545 4.74747 4.94949 
5.15152 5.35354 5.55556 5.75758 5.9596 6.16162 6.36364 6.56566 6.76768 
6.9697 7.17172 7.37374 7.57576 7.77778 7.9798 8.18182 8.38384 8.58586 
8.78788 8.9899 9.19192 9.39394 9.59596 9.79798 10 
Z_COORDINATES 34 float
-10 -9.79798 -9.59596 -9.39394 -9.19192 -8.9899 -8.78788 -8.58586 -8.38384 
-8.18182 -7.9798 -7.77778 -7.57576 -7.37374 -7.17172 -6.9697 -6.76768 -6.56566 
-6.36364 -6.16162 -5.9596 -5.75758 -5.55556 -5.35354 -5.15152 -4.9495 -4.74747 
-4.54545 -4.34343 -4.14141 -3.93939 -3.73737 -3.53535 -3.33333 
POINT_DATA 39304
VECTORS grad float
-0.0265508 -0.0386825 0.0995673 -0.0282583 -0.0370366 0.0989441 -0.0299712 -0.0357155 0.0975843 
-0.0315672 -0.03455 0.0959432 -0.032898 -0.0337372 0.0936641 -0.0340242 -0.0330372 0.0912253 
-0.0346385 -0.0326194 0.0883869 -0.0350203 -0.0322412 0.0855382 -0.0347582 -0.0319727 0.0826613 
-0.0343064 -0.0316676 0.0799104 -0.03327 -0.0312496 0.077548 -0.032138 -0.030747 0.0753868 
-0.0306754 -0.0299517 0.0739202 -0.029219 -0.0290666 0.0726494 -0.0277869 -0.0278313 0.0721418 
-0.0264311 -0.0265342 0.0717675 -0.0254148 -0.024962 0.0719856 -0.0244989 -0.0233658 0.0722614 
-0.0240977 -0.0216465 0.0728329 -0.0237855 -0.0199328 0.0734053 -0.024007 -0.0182522 0.0739833 
-0.0242903 -0.0165921 0.074533 -0.0250163 -0.0150798 0.0748793 -0.0257767 -0.0135914 0.0751895 
-0.0268402 -0.0123129 0.0751812 -0.0279179 -0.0110548 0.0751411 -0.0291552 -0.0100258 0.0747421 
-0.0303949 -0.00901115 0.0743203 -0.0316709 -0.00821727 0.073549 -0.0329444 -0.00743177 0.0727645 
-0.0341582 -0.0068433 0.0716696 -0.035359 -0.0062583 0.0705694 -0.0359398 -0.00584029 0.0692146 
-0.0365206 -0.00542228 0.0678596 -0.0248199 -0.0418133 0.098031 -0.0267473 -0.0400065 0.0974238 
-0.0287086 -0.0385315 0.0960042 -0.0305471 -0.0372254 0.0942608 -0.0321072 -0.0363021 0.0917832 
-0.0334368 -0.0355071 0.0891144 -0.0341903 -0.0350327 0.0859674 -0.0346743 -0.0346082 0.0828059 
-0.0344123 -0.0343214 0.0796045 -0.0339276 -0.0339992 0.076557 -0.0327561 -0.0335679 0.0739837 
-0.0314723 -0.0330464 0.0716582 -0.0298002 -0.0322135 0.0701886 -0.0281366 -0.0312844 0.0689579 
-0.0265059 -0.0299802 0.0686594 -0.0249656 -0.0286109 0.068519 -0.0238266 -0.0269524 0.0690819 
-0.0228038 -0.0252703 0.0697084 -0.0223765 -0.0234677 0.0706615 -0.0220497 -0.0216729 0.0716104 
-0.0223254 -0.019925 0.0725343 -0.022669 -0.0182002 0.0734213 -0.0234983 -0.01664 0.0740439 
-0.0243641 -0.0151052 0.0746228 -0.0255506 -0.0137943 0.0748165 -0.0267513 -0.0125045 0.0749729 
-0.0281112 -0.0114525 0.0747104 -0.0294728 -0.0104152 0.0744219 -0.0308596 -0.00960249 0.0737351 
-0.0322432 -0.00879818 0.0730334 -0.0335511 -0.00819127 0.0719839 -0.034845 -0.00758781 0.0709285 
-0.0354684 -0.00714973 0.0695907 -0.0360918 -0.00671165 0.0682529 -0.022872 -0.0446053 0.0964004 
-0.0250207 -0.0425756 0.0958271 -0.0272503 -0.0408861 0.0943515 -0.0293558 -0.0393806 0.0924985 
-0.0311805 -0.0382921 0.0897901 -0.0327483 -0.0373506 0.086848 -0.0336742 -0.0367769 0.0833214 
-0.0342891 -0.0362677 0.0797717 -0.0340426 -0.0359371 0.0761581 -0.0335347 -0.0355773 0.0727313 
-0.032221 -0.0351276 0.0698808 -0.0307753 -0.034587 0.0673363 -0.0288736 -0.0337323 0.0658493 
-0.0269832 -0.0327787 0.0646551 -0.0251367 -0.0314396 0.0646026 -0.0233967 -0.0300347 0.0647378 
-0.0221303 -0.0283378 0.0657074 -0.0209979 -0.0266189 0.0667462 -0.0205518 -0.0247879 0.0681402 
-0.0202184 -0.0229671 0.0695225 -0.0205613 -0.0212072 0.0708348 -0.0209779 -0.019472 0.0720997 
-0.0219227 -0.0179134 0.0730243 -0.0229056 -0.016381 0.0738963 -0.0242235 -0.0150786 0.0743051 
-0.0255551 -0.0137973 0.0746708 -0.0270417 -0.0127542 0.0745512 -0.028529 -0.0117255 0.0744022 
-0.0300275 -0.0109173 0.0738029 -0.0315219 -0.0101172 0.0731872 -0.0329228 -0.0095081 0.0721851 
-0.0343087 -0.00890231 0.0711764 -0.0349739 -0.00845489 0.069858 -0.035639 -0.00800746 0.0685396 
-0.0207546 -0.0472893 0.0948002 -0.0231253 -0.0449977 0.094286 -0.0256329 -0.0430538 0.0927744 
-0.0280183 -0.0413088 0.0908267 -0.0301267 -0.0400146 0.0878907 -0.0319528 -0.038887 0.0846724 
-0.0330731 -0.0381761 0.0807483 -0.0338397 -0.0375467 0.0767886 -0.0336266 -0.0371432 0.0727299 
-0.0331115 -0.0367206 0.0688917 -0.0316655 -0.0362388 0.0657336 -0.0300666 -0.0356696 0.062944 
-0.0279393 -0.0347983 0.0614274 -0.0258259 -0.0338289 0.060261 -0.0237663 -0.0324774 0.0604605 
-0.0218298 -0.0310616 0.0608785 -0.0204402 -0.02936 0.0622677 -0.0192023 -0.0276387 0.0637311 
-0.0187422 -0.0258169 0.0655753 -0.0184068 -0.0240071 0.0673994 -0.0188202 -0.0222702 0.0691032 
-0.0193128 -0.0205589 0.0707483 -0.0203739 -0.0190312 0.0719732 -0.0214744 -0.0175297 0.0731363 
-0.0229221 -0.0162584 0.0737568 -0.0243831 -0.0150079 0.0743283 -0.0259932 -0.0139901 0.074348 
-0.0276031 -0.0129862 0.074335 -0.0292094 -0.012194 0.0738209 -0.030811 -0.0114095 0.0732888 
-0.0323012 -0.0108059 0.0723328 -0.0337754 -0.0102054 0.0713698 -0.0344805 -0.00975356 0.0700706 
-0.0351855 -0.00930168 0.0687715 -0.0182528 -0.0497286 0.0932689 -0.0208473 -0.0470862 0.0928711 
-0.0236552 -0.0447977 0.0913688 -0.0263492 -0.0427225 0.0893602 -0.0287848 -0.0411308 0.0862038 
-0.0309144 -0.0397271 0.0827028 -0.0322792 -0.0387932 0.0783404 -0.0332449 -0.0379632 0.0739208 
-0.0331055 -0.037421 0.0693428 -0.0326192 -0.0368781 0.0650204 -0.0310636 -0.0363332 0.0614864 
-0.0293312 -0.0357139 0.0583923 -0.0269876 -0.0348378 0.0568181 -0.0246598 -0.0338725 0.0556601 
-0.0223935 -0.0325597 0.0561252 -0.0202674 -0.0311887 0.0568423 -0.018764 -0.029559 0.0586801 
-0.0174304 -0.0279134 0.0605959 -0.0169669 -0.0261855 0.0629116 -0.0166399 -0.024471 0.0651968 
-0.0171313 -0.0228364 0.0672987 -0.0177068 -0.0212268 0.0693296 -0.0188859 -0.0197962 0.0708507 
-0.0201053 -0.0183904 0.0723007 -0.0216793 -0.0172015 0.0731248 -0.0232657 -0.0160318 0.0738939 
-0.0249923 -0.0150768 0.0740451 -0.0267177 -0.0141343 0.0741605 -0.0284235 -0.0133842 0.073726 
-0.0301237 -0.012641 0.0732719 -0.0316947 -0.0120605 0.0723594 -0.0332488 -0.0114828 0.0714393 
-0.0339896 -0.0110376 0.0701593 -0.0347305 -0.0105923 0.0688793 -0.0155112 -0.0521358 0.0917929 
-0.0183289 -0.0491045 0.091559 -0.0214441 -0.0464323 0.0901128 -0.0244566 -0.0439868 0.0880873 
-0.0272363 -0.042055 0.0847489 -0.0296886 -0.0403317 0.080999 -0.0313226 -0.0391299 0.0762207 
-0.0325133 -0.0380558 0.0713585 -0.0324766 -0.0373354 0.0662645 -0.0320482 -0.0366369 0.0614578 
-0.0304119 -0.0360058 0.057537 -0.028574 -0.0353188 0.0541261 -0.0260394 -0.0344386 0.052477 
-0.0235214 -0.0334827 0.0513093 -0.0210677 -0.0322317 0.0520191 -0.0187699 -0.0309311 0.053014 
-0.0171646 -0.0294097 0.0552762 -0.0157459 -0.0278764 0.0576198 -0.0152835 -0.0262819 0.0603808 
-0.0149681 -0.0247012 0.063101 -0.0155352 -0.0232037 0.0655762 -0.016191 -0.0217297 0.0679683 
-0.0174817 -0.0204238 0.0697649 -0.0188134 -0.0191404 0.0714815 -0.0205052 -0.0180541 0.0724936 
-0.0222086 -0.0169848 0.0734452 -0.0240432 -0.0161066 0.0737175 -0.0258755 -0.0152393 0.0739509 
-0.0276728 -0.0145408 0.0735895 -0.0294639 -0.0138482 0.0732072 -0.031109 -0.0132969 0.0723349 
-0.0327364 -0.0127479 0.0714546 -0.0335101 -0.0123131 0.0701928 -0.0342838 -0.0118783 0.068931 
-0.01217 -0.0544626 0.0904553 -0.0152095 -0.050947 0.0905039 -0.0186493 -0.0477941 0.0892305 
-0.0220053 -0.044878 0.0872985 -0.0251713 -0.042499 0.0838739 -0.0279942 -0.0403476 0.0799596 
-0.0299592 -0.0387655 0.0748212 -0.0314397 -0.0373385 0.0695598 -0.0315783 -0.0363413 0.0639583 
-0.0312802 -0.0353986 0.058667 -0.0296356 -0.034624 0.0543324 -0.0277626 -0.0338252 0.050574 
-0.0251003 -0.0329429 0.0488063 -0.0224522 -0.0320097 0.0475836 -0.0198594 -0.0308781 0.0484862 
-0.0174348 -0.0297115 0.0497054 -0.0157575 -0.0283894 0.0523316 -0.0142804 -0.0270606 0.0550418 
-0.0138294 -0.0256973 0.0581824 -0.013534 -0.0243469 0.0612724 -0.0141714 -0.0230736 0.0640584 
-0.0149004 -0.0218201 0.0667506 -0.0162867 -0.0207077 0.0687708 -0.0177141 -0.0196137 0.0707033 
-0.0195029 -0.0186803 0.0718646 -0.0213024 -0.0177606 0.072961 -0.0232233 -0.0169943 0.0733278 
-0.0251411 -0.0162367 0.0736535 -0.0270104 -0.0156132 0.0733492 -0.0288729 -0.0149944 0.073023 
-0.0305755 -0.0144874 0.0721828 -0.0322598 -0.0139824 0.0713342 -0.0330588 -0.0135674 0.0700881 
-0.0338578 -0.0131525 0.068842 -0.00853756 -0.0568219 0.0891271 -0.0117985 -0.0527984 0.0895237 
-0.0155667 -0.0491424 0.0884927 -0.0192723 -0.0457323 0.0867256 -0.0228356 -0.0428799 0.0832901 
-0.0260432 -0.0402725 0.0792862 -0.0283615 -0.0382778 0.0738611 -0.0301575 -0.0364656 0.0682698 
-0.0305073 -0.0351587 0.0622181 -0.0303779 -0.0339412 0.0564913 -0.028771 -0.0329998 0.0517665 
-0.0269089 -0.0320699 0.0476748 -0.0241651 -0.0311801 0.0457699 -0.021431 -0.030268 0.0444664 
-0.0187346 -0.0292685 0.0455087 -0.0162156 -0.0282507 0.0468961 -0.0144848 -0.0271512 0.0498176 
-0.0129653 -0.0260506 0.0528262 -0.0125287 -0.024944 0.0562809 -0.0122543 -0.0238488 0.0596769 
-0.012954 -0.022822 0.062721 -0.0137478 -0.0218104 0.0656625 -0.0152167 -0.0209084 0.0678683 
-0.0167268 -0.0200201 0.0699801 -0.0185986 -0.0192516 0.0712654 -0.0204804 -0.018493 0.072482 
-0.0224751 -0.0178466 0.0729277 -0.0244658 -0.0172065 0.0733303 -0.0263964 -0.0166633 0.0730741 
-0.0283197 -0.0161234 0.0727951 -0.0300714 -0.0156641 0.0719823 -0.0318042 -0.0152062 0.071161 
-0.0326248 -0.0148132 0.0699291 -0.0334454 -0.0144203 0.0686971 -0.0040987 -0.0592714 0.0878248 
-0.00758015 -0.054674 0.0887507 -0.0116873 -0.0504536 0.0881552 -0.0157589 -0.0464848 0.0867507 
-0.0197499 -0.0430863 0.0835126 -0.0233816 -0.0399455 0.079626 -0.0261147 -0.037449 0.0741182 
-0.0282979 -0.0351616 0.0683887 -0.0289582 -0.0334537 0.0620453 -0.0291037 -0.0318769 0.0560189 
-0.0276618 -0.0307041 0.0509696 -0.0259381 -0.0295899 0.0465838 -0.0232411 -0.028678 0.0444901 
-0.020543 -0.0277823 0.0430347 -0.0178413 -0.02695 0.0440691 -0.0153176 -0.0261215 0.0454694 
-0.0135848 -0.0253094 0.048496 -0.0120672 -0.0245027 0.0516142 -0.0116523 -0.0237235 0.0552013 
-0.0114023 -0.0229529 0.058727 -0.0121422 -0.0222336 0.0618833 -0.0129771 -0.0215235 0.0649332 
-0.0144928 -0.0208786 0.0672197 -0.0160493 -0.0202412 0.0694095 -0.0179658 -0.0196705 0.0707487 
-0.0198918 -0.0191052 0.0720177 -0.0219251 -0.0186008 0.0724986 -0.023954 -0.0180999 0.0729358 
-0.0259165 -0.0176515 0.0727024 -0.0278714 -0.0172049 0.0724459 -0.0296488 -0.0168024 0.0716481 
-0.0314069 -0.0164006 0.0708417 -0.0322389 -0.0160353 0.0696195 -0.0330709 -0.01567 0.0683974 
0.000639683 -0.0617645 0.0864188 -0.00306803 -0.0565947 0.0879431 -0.00751849 -0.051817 0.0878564 
-0.0119608 -0.0472963 0.0868927 -0.0163848 -0.0433582 0.083941 -0.0204485 -0.0396883 0.0802646 
-0.0236115 -0.0366891 0.0747764 -0.0262017 -0.0339239 0.0690093 -0.0272056 -0.0318068 0.0624699 
-0.0276633 -0.0298614 0.0562293 -0.0264367 -0.0284455 0.0509104 -0.0249029 -0.0271354 0.046271 
-0.0223074 -0.0261909 0.0439791 -0.0196979 -0.0253022 0.0423511 -0.0170339 -0.0246311 0.0433127 
-0.0145447 -0.0239864 0.0446566 -0.012832 -0.0234594 0.0477001 -0.0113351 -0.0229446 0.0508406 
-0.0109444 -0.0224924 0.0544777 -0.0107195 -0.0220461 0.0580532 -0.0114898 -0.0216348 0.0612583 
-0.0123552 -0.0212265 0.0643555 -0.0139027 -0.020839 0.0666791 -0.0154907 -0.020453 0.0689049 
-0.0174365 -0.0200803 0.07027 -0.0193914 -0.0197085 0.0715644 -0.0214498 -0.0193464 0.0720637 
-0.0235037 -0.0189848 0.072519 -0.0254869 -0.0186312 0.0722989 -0.0274624 -0.018278 0.0720557 
-0.0292569 -0.0179324 0.0712682 -0.0310318 -0.0175869 0.070472 -0.0318714 -0.0172493 0.0692582 
-0.0327111 -0.0169117 0.0680444 0.00630159 -0.0643924 0.0846934 0.00234996 -0.0586545 0.0870284 
-0.00245764 -0.0533417 0.0876773 -0.00728521 -0.0482904 0.0873957 -0.012158 -0.0438318 0.0850047 
-0.0166784 -0.0396459 0.0818246 -0.0203175 -0.036142 0.0766717 -0.0233758 -0.0328907 0.0711771 
-0.0248255 -0.0303388 0.0647361 -0.0257106 -0.0279966 0.0585453 -0.0248545 -0.0263009 0.053126 
-0.0236688 -0.0247593 0.0483577 -0.0213441 -0.0237506 0.0458387 -0.0189849 -0.0228397 0.0439743 
-0.0164914 -0.0223107 0.0446627 -0.0141575 -0.0218331 0.0457368 -0.0125329 -0.0215838 0.0485251 
-0.0111149 -0.0213547 0.0514187 -0.0107559 -0.0212286 0.0548516 -0.0105583 -0.0211059 0.0582309 
-0.0113285 -0.0210037 0.0612891 -0.0121921 -0.0208982 0.0642454 -0.0137253 -0.0207693 0.0664714 
-0.0152987 -0.0206359 0.0686035 -0.0172264 -0.0204621 0.0699085 -0.0191634 -0.0202846 0.071145 
-0.0212052 -0.0200652 0.0716106 -0.0232426 -0.0198435 0.0720332 -0.0252125 -0.0195851 0.0717974 
-0.0271749 -0.0193255 0.0715389 -0.0289597 -0.0190371 0.0707474 -0.0307252 -0.0187482 0.0699473 
-0.0315609 -0.0184387 0.0687372 -0.0323967 -0.0181291 0.0675271 0.0122149 -0.066987 0.0827301 
0.00800158 -0.060713 0.0859309 0.00282665 -0.0549045 0.0873684 -0.00239383 -0.0493623 0.0878259 
-0.00771758 -0.044424 0.0860621 -0.0126976 -0.0397611 0.0834503 -0.0168183 -0.0357866 0.0787184 
-0.020354 -0.03208 0.073583 -0.0222697 -0.0291152 0.0673302 -0.0236065 -0.0263941 0.0612723 
-0.0231579 -0.0244244 0.055815 -0.022359 -0.0226538 0.0509688 -0.0203495 -0.0215708 0.0482334 
-0.0182836 -0.0206255 0.0461332 -0.0159979 -0.0202176 0.0465102 -0.0138537 -0.0198851 0.0472718 
-0.0123382 -0.019888 0.0497427 -0.0110175 -0.0199193 0.0523271 -0.0106951 -0.0200952 0.0554939 
-0.0105278 -0.0202728 0.0586172 -0.0112919 -0.0204601 0.0614794 -0.012147 -0.0206387 0.0642477 
-0.0136549 -0.020754 0.066342 -0.0152025 -0.020859 0.0683474 -0.0171003 -0.0208741 0.0695702 
-0.0190075 -0.0208812 0.0707273 -0.0210218 -0.0207978 0.0711458 -0.0230321 -0.0207094 0.0715228 
-0.0249796 -0.0205419 0.0712637 -0.0269197 -0.0203717 0.0709826 -0.0286878 -0.0201379 0.0701835 
-0.0304367 -0.0199031 0.0693761 -0.0312655 -0.01962 0.0681688 -0.0320942 -0.0193369 0.0669614 
0.0189969 -0.0694671 0.0799452 0.0144602 -0.0627671 0.0842023 0.00888289 -0.056599 0.0866108 
0.00324293 -0.0507035 0.0880045 -0.00253896 -0.0454261 0.0870979 -0.00798924 -0.0404202 0.0853031 
-0.0126104 -0.0360934 0.0812879 -0.0166559 -0.0320383 0.0768113 -0.0191071 -0.0287359 0.0710567 
-0.0209793 -0.0256977 0.0654186 -0.0210662 -0.0234745 0.0601398 -0.0207877 -0.0214829 0.0553916 
-0.0192468 -0.0202913 0.0524766 -0.0176227 -0.0192695 0.050143 -0.0156738 -0.0189094 0.0500765 
-0.0138379 -0.0186462 0.0503781 -0.0125043 -0.0188133 0.0523161 -0.0113445 -0.0190176 0.0543763 
-0.0110751 -0.0194127 0.0570636 -0.0109495 -0.0198097 0.0597238 -0.0116863 -0.0202191 0.0622211 
-0.0125098 -0.0206163 0.0646385 -0.0139542 -0.0209259 0.0664828 -0.0154376 -0.0212212 0.0682475 
-0.0172641 -0.0213904 0.0693117 -0.0191006 -0.0215483 0.0703155 -0.0210499 -0.021578 0.0706407 
-0.0229957 -0.0216002 0.070927 -0.0248896 -0.0215089 0.0706188 -0.0267766 -0.0214137 0.0702897 
-0.0285031 -0.0212255 0.0694709 -0.030211 -0.0210357 0.0686442 -0.0310219 -0.0207739 0.0674363 
-0.0318328 -0.020512 0.0662283 0.0259244 -0.0717561 0.0768459 0.0210357 -0.0646926 0.0821903 
0.0150409 -0.0582298 0.0855887 0.00897119 -0.052045 0.0879387 0.00273158 -0.0464908 0.087912 
-0.0031873 -0.0412022 0.0869615 -0.00830429 -0.0365779 0.0837014 -0.0128566 -0.0322256 0.0799249 
-0.0158451 -0.0286267 0.0747188 -0.0182574 -0.0253076 0.0695501 -0.0188929 -0.0228514 0.0644969 
-0.0191497 -0.0206542 0.0598899 -0.0180987 -0.0193515 0.0568246 -0.0169376 -0.0182466 0.054282 
-0.0153471 -0.0179127 0.053778 -0.0138401 -0.0176953 0.0536225 -0.0127042 -0.0179949 0.0550159 
-0.0117198 -0.0183405 0.0565392 -0.0115109 -0.0189222 0.0587277 -0.0114333 -0.0195071 0.0609054 
-0.0121434 -0.0201109 0.0630184 -0.0129352 -0.0206999 0.0650659 -0.0143124 -0.0211826 0.0666447 
-0.0157276 -0.0216476 0.0681535 -0.0174771 -0.021956 0.069048 -0.0192371 -0.0222501 0.0698877 
-0.0211152 -0.0223825 0.0701125 -0.0229907 -0.0225055 0.0703013 -0.0248254 -0.0224839 0.0699399 
-0.0266537 -0.0224571 0.0695589 -0.0283341 -0.0223103 0.0687187 -0.0299962 -0.0221616 0.067871 
-0.0307872 -0.0219186 0.0666622 -0.0315782 -0.0216757 0.0654533 0.0334195 -0.0732998 0.0725209 
0.028067 -0.0661165 0.0790736 0.0215961 -0.0596117 0.0835351 0.0150563 -0.0533876 0.0869194 
0.00836067 -0.0477997 0.0878619 0.00197957 -0.0424632 0.0878621 -0.00361507 -0.0377555 0.0855063 
-0.00866282 -0.0333058 0.0825918 -0.012196 -0.0295708 0.0781298 -0.0151664 -0.0261116 0.0736235 
-0.0164014 -0.0235031 0.0689802 -0.0172517 -0.0211605 0.064683 -0.016773 -0.0197365 0.0615814 
-0.0161578 -0.0185229 0.0589253 -0.0150105 -0.0181305 0.0580071 -0.0139128 -0.0178669 0.0574052 
-0.0130362 -0.0181757 0.0582089 -0.0122832 -0.018539 0.059145 -0.012164 -0.0191811 0.0607592 
-0.0121598 -0.0198301 0.062379 -0.012845 -0.0205205 0.0640322 -0.013605 -0.0211965 0.0656364 
-0.0149 -0.02177 0.0668886 -0.0162313 -0.0223247 0.0680826 -0.0178814 -0.0227136 0.068764 
-0.0195425 -0.0230868 0.0693977 -0.021326 -0.0232825 0.0694941 -0.0231077 -0.0234676 0.0695583 
-0.0248616 -0.0234898 0.0691283 -0.0266099 -0.0235062 0.0686804 -0.0282257 -0.0233849 0.0678118 
-0.0298241 -0.0232614 0.0669364 -0.0305869 -0.0230281 0.0657258 -0.0313497 -0.0227949 0.0645153 
0.0409014 -0.0744798 0.0679283 0.0350597 -0.0672643 0.0756916 0.0281034 -0.0607952 0.0812027 
0.0210894 -0.0546057 0.0856071 0.013945 -0.0490498 0.087503 0.00711103 -0.0437283 0.0884409 
0.00105336 -0.0389928 0.0869839 -0.00447527 -0.0344982 0.0849295 -0.00853874 -0.0306707 0.0812211 
-0.0120541 -0.027111 0.0773899 -0.0138797 -0.0243772 0.0731802 -0.015316 -0.0219118 0.0692185 
-0.0154078 -0.0203737 0.0661135 -0.015338 -0.0190555 0.063377 -0.0146382 -0.0185944 0.0620782 
-0.013955 -0.0182725 0.0610619 -0.0133452 -0.0185694 0.0613017 -0.0128313 -0.0189285 0.0616746 
-0.0128093 -0.0196063 0.0627297 -0.0128855 -0.020295 0.0638055 -0.0135511 -0.021049 0.0650057 
-0.014284 -0.0217896 0.0661725 -0.0154992 -0.0224351 0.0670999 -0.0167487 -0.0230613 0.0679804 
-0.0182996 -0.0235168 0.0684484 -0.0198617 -0.0239555 0.0688755 -0.0215493 -0.0242046 0.0688428 
-0.0232359 -0.024442 0.0687816 -0.0249071 -0.0245016 0.0682824 -0.0265734 -0.0245546 0.067767 
-0.0281226 -0.0244548 0.0668701 -0.0296551 -0.0243525 0.0659669 -0.0303887 -0.0241264 0.0647552 
-0.0311224 -0.0239004 0.0635436 0.0483241 -0.0740431 0.062147 0.0418812 -0.0671851 0.0711308 
0.0343984 -0.0610966 0.077631 0.0268916 -0.0552703 0.0829921 0.0193305 -0.0500385 0.0857714 
0.0120852 -0.0450113 0.08759 0.00562952 -0.0404957 0.0870066 -0.00031533 -0.0361895 0.0858048 
-0.00484535 -0.0324634 0.082891 -0.0088478 -0.028979 0.0797918 -0.0112235 -0.0262396 0.0761208 
-0.0132128 -0.0237516 0.072609 -0.013867 -0.0221324 0.0696473 -0.0143402 -0.0207263 0.0669776 
-0.0141077 -0.0201516 0.065447 -0.0138612 -0.0197177 0.064159 -0.0135523 -0.0199088 0.0639492 
-0.0133116 -0.0201673 0.0638656 -0.01342 -0.0207709 0.0644292 -0.0136085 -0.0213906 0.0650232 
-0.0142772 -0.022106 0.0657997 -0.0150043 -0.0228115 0.0665557 -0.01615 -0.0234459 0.0671656 
-0.017327 -0.0240626 0.067739 -0.0187792 -0.0245225 0.0679917 -0.0202423 -0.0249661 0.0682103 
-0.0218282 -0.0252249 0.0680448 -0.0234137 -0.025472 0.0678545 -0.0249936 -0.0255397 0.0672837 
-0.0265692 -0.0256006 0.0666984 -0.0280426 -0.0255039 0.0657734 -0.0295002 -0.0254044 0.0648425 
-0.0302001 -0.0251749 0.0636324 -0.0309001 -0.0249454 0.0624223 0.055541 -0.0731578 0.0562671 
0.0484983 -0.0667528 0.0664384 0.0405009 -0.0611182 0.073889 0.0325155 -0.0557225 0.0801688 
0.0245576 -0.0508684 0.083795 0.0169218 -0.0461859 0.0864598 0.0100914 -0.0419325 0.0867212 
0.00375391 -0.0378549 0.086347 -0.00121862 -0.0342643 0.0842126 -0.00568461 -0.0308869 0.0818346 
-0.00858875 -0.0281666 0.0787056 -0.0111105 -0.0256784 0.0756513 -0.012311 -0.0239918 0.0728552 
-0.0133129 -0.0225096 0.0702771 -0.0135398 -0.0218243 0.0685489 -0.0137235 -0.0212795 0.0670235 
-0.0137152 -0.0213592 0.0663991 -0.0137479 -0.0215106 0.0658929 -0.0139911 -0.0220294 0.0659928 
-0.0142963 -0.022569 0.0661315 -0.0149738 -0.0232337 0.0665028 -0.0157008 -0.023892 0.0668658 
-0.016782 -0.0245041 0.0671692 -0.0178914 -0.0251002 0.0674461 -0.019248 -0.0255553 0.0674896 
-0.0206153 -0.0259946 0.0675054 -0.0221012 -0.0262562 0.0672104 -0.0235874 -0.0265061 0.0668942 
-0.0250766 -0.026577 0.0662536 -0.0265621 -0.0266412 0.0656003 -0.0279597 -0.0265442 0.0646483 
-0.0293424 -0.0264445 0.0636911 -0.0300084 -0.0262097 0.0624836 -0.0306744 -0.0259748 0.0612761 
0.0617031 -0.0699732 0.0498815 0.0540681 -0.0645105 0.0610714 0.0456169 -0.0597055 0.0692744 
0.0372262 -0.0550853 0.0762782 0.028973 -0.0508839 0.0805635 0.0210535 -0.0468046 0.0838984 
0.013968 -0.0430307 0.0848576 0.00735842 -0.0393877 0.0851821 0.00206664 -0.0361069 0.0837491 
-0.00274252 -0.0329992 0.0820375 -0.00606361 -0.0304251 0.0794672 -0.0090129 -0.028051 0.0769091 
-0.0106778 -0.026368 0.0743932 -0.0121347 -0.0248692 0.0720334 -0.0127801 -0.0240881 0.0702829 
-0.0133603 -0.0234393 0.0686961 -0.0136506 -0.0233784 0.0678364 -0.0139588 -0.0233893 0.0670809 
-0.0143589 -0.0237684 0.0668597 -0.014804 -0.0241722 0.0666789 -0.0155198 -0.024724 0.0667405 
-0.0162756 -0.0252733 0.0668011 -0.0173176 -0.0258052 0.0668546 -0.0183837 -0.026324 0.0668889 
-0.0196619 -0.0267268 0.0667541 -0.0209496 -0.0271154 0.066597 -0.0223446 -0.027344 0.0661889 
-0.0237401 -0.0275616 0.0657629 -0.0251419 -0.0276109 0.0650621 -0.0265404 -0.0276535 0.0643503 
-0.0278619 -0.0275401 0.0633779 -0.0291692 -0.027424 0.0624009 -0.0298006 -0.0271742 0.0612015 
-0.0304319 -0.0269243 0.060002 0.0674915 -0.0664138 0.0436048 0.0593056 -0.0619647 0.0557433 
0.0504393 -0.0580384 0.0646439 0.0416803 -0.0542373 0.0723204 0.0331645 -0.0507201 0.0772226 
0.0249926 -0.0472733 0.0811879 0.0176807 -0.0440024 0.082811 0.0108271 -0.0408163 0.083803 
0.00524263 -0.0378652 0.0830474 0.000116422 -0.0350464 0.081982 -0.00359689 -0.0326355 0.079961 
-0.00694999 -0.030392 0.0778935 -0.00905869 -0.0287266 0.0756652 -0.0109514 -0.0272241 0.0735342 
-0.0120018 -0.0263567 0.0717823 -0.0129663 -0.0256126 0.0701558 -0.0135492 -0.0254157 0.069087 
-0.0141279 -0.0252901 0.0681081 -0.014685 -0.0255299 0.0675898 -0.0152708 -0.0257978 0.0671128 
-0.0160284 -0.026234 0.066883 -0.0168165 -0.0266716 0.0666589 -0.0178237 -0.0271195 0.066475 
-0.0188509 -0.027557 0.0662787 -0.0200543 -0.0279036 0.0659735 -0.0212662 -0.0282375 0.0656511 
-0.0225732 -0.0284297 0.0651347 -0.0238808 -0.0286115 0.0646036 -0.0251969 -0.0286365 0.0638454 
-0.0265102 -0.028655 0.0630777 -0.0277565 -0.0285234 0.0620867 -0.0289896 -0.028389 0.0610917 
-0.0295866 -0.0281231 0.0599015 -0.0301837 -0.0278573 0.0587112 0.0710371 -0.0606051 0.0379801 
0.0625491 -0.0575976 0.0506487 0.0535006 -0.0548442 0.0599171 0.0445947 -0.0521243 0.0679602 
0.0360124 -0.0494805 0.0732257 0.0277772 -0.0468415 0.0775823 0.0204101 -0.0442144 0.0796666 
0.0134806 -0.0416203 0.0811391 0.00776305 -0.0391175 0.0809174 0.0024766 -0.0367024 0.0803758 
-0.00148071 -0.0345579 0.0788478 -0.00509499 -0.0325437 0.0772374 -0.00752426 -0.0309792 0.0753423 
-0.00973804 -0.0295511 0.0735016 -0.0111115 -0.0286546 0.0718734 -0.0123869 -0.0278666 0.0703383 
-0.0132269 -0.0275614 0.0692172 -0.0140464 -0.0273228 0.0681696 -0.0147616 -0.0274255 0.0674987 
-0.0154918 -0.0275572 0.066865 -0.0163119 -0.0278627 0.0664545 -0.0171539 -0.0281724 0.066052 
-0.0181524 -0.0285131 0.0657056 -0.0191665 -0.0288461 0.0653509 -0.0203183 -0.0291122 0.0649223 
-0.021477 -0.0293677 0.0644801 -0.0227129 -0.0295025 0.0638839 -0.0239491 -0.0296281 0.0632754 
-0.0251905 -0.0296127 0.0624769 -0.0264292 -0.0295914 0.0616702 -0.0276065 -0.0294306 0.0606711 
-0.0287713 -0.0292672 0.0596685 -0.029336 -0.0289789 0.0584946 -0.0299008 -0.0286905 0.0573207 
0.0741515 -0.0546235 0.0325931 0.0654262 -0.0530769 0.0457057 0.0562478 -0.051508 0.055285 
0.0472427 -0.0498794 0.0636435 0.0386306 -0.0481154 0.0692345 0.0303663 -0.0462903 0.0739471 
0.0229715 -0.0443123 0.0764634 0.0159926 -0.0423157 0.0783889 0.0101654 -0.0402676 0.0786783 
0.00474163 -0.0382631 0.0786399 0.000561682 -0.0363931 0.0775908 -0.00329305 -0.0346165 0.076426 
-0.00602428 -0.0331623 0.0748612 -0.0085415 -0.0318179 0.0733103 -0.010224 -0.0309013 0.0718133 
-0.0117975 -0.0300786 0.0703782 -0.0128864 -0.0296727 0.0692184 -0.0139396 -0.0293284 0.0681159 
-0.0148099 -0.029299 0.0673071 -0.0156821 -0.0292992 0.0665312 -0.0165655 -0.0294767 0.0659528 
-0.0174622 -0.0296612 0.0653842 -0.0184544 -0.0298953 0.0648851 -0.0194579 -0.0301244 0.0643812 
-0.020561 -0.0303099 0.063836 -0.0216693 -0.0304866 0.0632804 -0.0228366 -0.0305633 0.0626088 
-0.0240038 -0.0306318 0.0619272 -0.0251723 -0.0305753 0.061091 -0.0263384 -0.0305134 0.0602479 
-0.027448 -0.0303228 0.0592425 -0.0285457 -0.0301298 0.058234 -0.0290788 -0.0298187 0.0570774 
-0.0296118 -0.0295075 0.0559208 0.0741765 -0.0474026 0.0289084 0.0656787 -0.0474558 0.0418501 
0.0567448 -0.0471542 0.0513312 0.0479809 -0.0466884 0.0596383 0.0396027 -0.0458505 0.0652844 
0.031554 -0.0448832 0.0700999 0.0243293 -0.0435926 0.0728392 0.0174907 -0.0422337 0.0750207 
0.0117217 -0.0406857 0.0756576 0.00632474 -0.0391403 0.0759742 0.0020752 -0.0376027 0.0753036 
-0.00187136 -0.0361236 0.074502 -0.00477128 -0.0348466 0.0732477 -0.00746547 -0.0336525 0.0719816 
-0.00935734 -0.0327821 0.0706694 -0.0111367 -0.0319886 0.069396 -0.0124163 -0.0315368 0.0682945 
-0.0136509 -0.0311385 0.0672356 -0.0146557 -0.0310142 0.0663949 -0.0156529 -0.0309175 0.0655809 
-0.0166045 -0.0309861 0.0649265 -0.0175624 -0.0310627 0.0642809 -0.0185657 -0.0311962 0.063698 
-0.0195762 -0.0313265 0.063112 -0.0206507 -0.0314291 0.0624978 -0.0217287 -0.0315244 0.0618753 
-0.0228451 -0.0315375 0.0611593 -0.023961 -0.0315434 0.0604347 -0.0250702 -0.03144 0.0595804 
-0.0261771 -0.0313317 0.0587202 -0.0272283 -0.0311071 0.0577203 -0.0282684 -0.0308801 0.0567176 
-0.0287735 -0.0305439 0.0555858 -0.0292785 -0.0302077 0.054454 0.073858 -0.0402175 0.0254548 
0.0656398 -0.041841 0.03816 0.0569921 -0.0427857 0.0475007 0.0485071 -0.0434643 0.0557192 
0.0403913 -0.0435396 0.0613936 0.0325844 -0.0434189 0.0662872 0.0255503 -0.0428082 0.0692289 
0.0188716 -0.0420806 0.0716468 0.0131773 -0.0410298 0.0726139 0.00782356 -0.0399413 0.0732694 
0.00351961 -0.0387367 0.0729644 -0.000503948 -0.0375565 0.0725145 -0.00355883 -0.0364602 0.0715639 
-0.00641681 -0.0354207 0.0705773 -0.00850685 -0.0346021 0.0694499 -0.0104816 -0.0338435 0.0683388 
-0.0119442 -0.0333518 0.0673001 -0.0133533 -0.0329054 0.0662897 -0.0144886 -0.0326915 0.065424 
-0.0156072 -0.032503 0.0645787 -0.0166258 -0.0324667 0.0638552 -0.0176439 -0.0324392 0.0631394 
-0.0186589 -0.0324746 0.0624788 -0.0196772 -0.0325084 0.0618163 -0.0207246 -0.0325295 0.0611376 
-0.0217736 -0.0325449 0.0604525 -0.0228408 -0.032495 0.059695 -0.023907 -0.0324391 0.0589306 
-0.0249583 -0.0322891 0.0580602 -0.0260073 -0.0321347 0.0571848 -0.0270014 -0.0318762 0.0561916 
-0.0279849 -0.0316155 0.0551961 -0.0284625 -0.0312544 0.0540897 -0.0289401 -0.0308933 0.0529834 
0.0705171 -0.0333475 0.0240357 0.0630375 -0.036281 0.0359268 0.0550425 -0.0382883 0.0447563 
0.0471677 -0.0399492 0.052557 0.0395652 -0.0408245 0.0580254 0.032231 -0.0414507 0.0627781 
0.0255675 -0.0414545 0.0657415 0.01922 -0.0413031 0.0682227 0.0137476 -0.0407219 0.0693684 
0.0085807 -0.040071 0.0702206 0.00435586 -0.0392053 0.0701678 0.00038595 -0.0383358 0.0699685 
-0.00270328 -0.0374532 0.0692628 -0.00560899 -0.0366043 0.0685083 -0.00779903 -0.0358868 0.0675638 
-0.00987674 -0.0352134 0.066621 -0.0114552 -0.0347351 0.0656854 -0.0129768 -0.034293 0.064767 
-0.0142073 -0.034036 0.0639364 -0.0154156 -0.0338005 0.0631199 -0.016491 -0.033694 0.0623883 
-0.0175612 -0.0335955 0.0616622 -0.0185934 -0.033555 0.0609756 -0.0196257 -0.0335137 0.0602871 
-0.0206586 -0.0334658 0.059583 -0.0216913 -0.033413 0.0588733 -0.0227234 -0.0333064 0.0581014 
-0.0237539 -0.0331945 0.0573237 -0.02476 -0.0330006 0.0564548 -0.0257636 -0.0328028 0.0555816 
-0.0267104 -0.0325119 0.0546062 -0.0276472 -0.032219 0.0536287 -0.0281015 -0.0318344 0.052554 
-0.0285559 -0.0314498 0.0514794 0.0669951 -0.0266207 0.022756 0.0602738 -0.0308171 0.0338058 
0.0529497 -0.033854 0.0421047 0.0457018 -0.0364678 0.0494699 0.0386265 -0.0381226 0.0547188 
0.0317778 -0.0394777 0.0593175 0.0254955 -0.0400834 0.062291 0.0194893 -0.0404968 0.0648242 
0.014248 -0.0403778 0.0661378 0.00927704 -0.0401581 0.0671764 0.00514008 -0.0396278 0.0673667 
0.0012325 -0.0390662 0.0674095 -0.00188264 -0.0383969 0.0669424 -0.00482787 -0.0377388 0.0664146 
-0.00711049 -0.0371246 0.0656502 -0.00928402 -0.0365384 0.0648734 -0.0109727 -0.0360768 0.0640411 
-0.0126016 -0.0356422 0.0632152 -0.0139236 -0.0353456 0.0624218 -0.0152182 -0.0350666 0.0616365 
-0.0163487 -0.0348929 0.0608997 -0.0174693 -0.0347265 0.0601662 -0.0185184 -0.0346125 0.0594564 
-0.0195643 -0.0344983 0.0587449 -0.0205831 -0.034383 0.0580176 -0.0216001 -0.0342639 0.0572856 
-0.0225978 -0.0341016 0.0565013 -0.0235933 -0.0339347 0.0557119 -0.0245549 -0.0336978 0.0548458 
-0.0255141 -0.0334573 0.053976 -0.0264145 -0.0331344 0.053019 -0.0273052 -0.0328098 0.0520603 
-0.0277367 -0.0324021 0.0510178 -0.0281681 -0.0319945 0.0499753 0.0614347 -0.0215061 0.0230452 
0.0556959 -0.0264348 0.0329478 0.0492463 -0.0301286 0.0404974 0.042814 -0.0333664 0.0472285 
0.0364206 -0.0355709 0.0521042 0.030202 -0.0374499 0.0564022 0.0244201 -0.0385152 0.0592557 
0.0188701 -0.0393667 0.0617134 0.0139626 -0.0396265 0.0630748 0.00928937 -0.0397653 0.0641839 
0.00533886 -0.0395314 0.0645151 0.00159137 -0.0392469 0.0647049 -0.00145482 -0.0387875 0.064406 
-0.00434705 -0.0383221 0.0640424 -0.00663884 -0.0378332 0.0634264 -0.00882837 -0.0373591 0.0627901 
-0.0105635 -0.0369503 0.0620635 -0.0122394 -0.0365598 0.061336 -0.0136122 -0.0362628 0.0606039 