# vtk DataFile Version 2.0
vtk output
ASCII
DATASET RECTILINEAR_GRID
DIMENSIONS 34 34 34
X_COORDINATES 34 float
3.33333 3.53535 3.73737 3.93939 4.14141 4.34343 4.54545 4.74747 4.94949 
5.15152 5.35354 5.55556 5.75758 5.9596 6.16162 6.36364 6.56566 6.76768 
6.9697 7.17172 7.37374 7.57576 7.77778 7.9798 8.18182 8.38384 8.58586 
8.78788 8.9899 9.19192 9.39394 9.59596 9.79798 10 
Y_COORDINATES 34 float
-10 -9.79798 -9.59596 -9.39394 -9.19192 -8.9899 -8.78788 -8.58586 -8.38384 
-8.18182 -7.9798 -7.77778 -7.57576 -7.37374 -7.17172 -6.9697 -6.76768 -6.56566 
-6.36364 -6.16162 -5.9596 -5.75758 -5.55556 -5.35354 -5.15152 -4.9495 -4.74747 
-4.54545 -4.34343 -4.14141 -3.93939 -3.73737 -3.53535 -3.33333 
Z_COORDINATES 34 float
-10 -9.79798 -9.59596 -9.39394 -9.19192 -8.9899 -8.78788 -8.58586 -8.38384 
-8.18182 -7.9798 -7.77778 -7.57576 -7.37374 -7.17172 -6.9697 -6.76768 -6.56566 
-6.36364 -6.16162 -5.9596 -5.75758 -5.55556 -5.35354 -5.15152 -4.9495 -4.74747 
-4.54545 -4.34343 -4.14141 -3.93939 -3.73737 -3.53535 -3.33333 
POINT_DATA 39304
VECTORS grad float
-0.00038286 0.0328717 0.0214443 0.000102266 0.0330565 0.0222308 0.000487374 0.0333273 0.023087 
0.000822434 0.033632 0.023963 0.00104405 0.0340137 0.0248837 0.00121634 0.0344212 0.0258132 
0.00126531 0.0348934 0.0267646 0.00126699 0.0353836 0.0277171 0.00113772 0.0359234 0.0286722 
0.000963851 0.036473 0.0296225 0.000652495 0.0370528 0.0305579 0.000299653 0.0376344 0.031484 
-0.000196499 0.038222 0.0323779 -0.000730329 0.0388031 0.0332586 -0.0014111 0.0393593 0.0340876 
-0.00212453 0.0399017 0.0348997 -0.00298314 0.040383 0.035637 -0.00386798 0.0408445 0.0363542 
-0.00488725 0.0412042 0.0369683 -0.0059251 0.0415404 0.0375603 -0.00707448 0.0417361 0.0380195 
-0.00823429 0.0419078 0.0384565 -0.00946898 0.0419079 0.0387331 -0.0107068 0.0418867 0.0389893 
-0.0119718 0.0416776 0.0390661 -0.0132345 0.0414519 0.0391264 -0.0144719 0.0410403 0.0390012 
-0.0157043 0.040618 0.0388645 -0.016861 0.0400301 0.038551 -0.0180128 0.0394365 0.0382308 
-0.0190479 0.0387113 0.0377551 -0.0200717 0.0379841 0.0372768 -0.0205546 0.0371654 0.0366729 
-0.0210376 0.0363467 0.0360689 -0.000220936 0.0329872 0.0215618 0.00032847 0.0331655 0.02241 
0.000772628 0.0334321 0.0233382 0.00116392 0.0337336 0.0242901 0.00143538 0.0341143 0.0252956 
0.00165446 0.034522 0.026313 0.00174257 0.0349969 0.02736 0.00178007 0.0354907 0.0284105 
0.00167742 0.0360369 0.0294702 0.00152657 0.0365937 0.0305269 0.00122704 0.0371835 0.0315739 
0.00088205 0.0377756 0.0326125 0.000380027 0.0383758 0.033622 -0.000163838 0.0389699 0.0346181 
-0.000870894 0.0395404 0.0355623 -0.00161471 0.0400971 0.0364883 -0.00252194 0.0405924 0.0373333 
-0.00345901 0.0410674 0.0381557 -0.00454898 0.0414382 0.0388619 -0.00566015 0.0417849 0.0395423 
-0.0068985 0.0419863 0.0400687 -0.00814867 0.0421628 0.0405687 -0.00948353 0.0421611 0.04088 
-0.0108217 0.0421373 0.0411672 -0.0121886 0.0419181 0.0412426 -0.0135525 0.0416818 0.0412987 
-0.0148836 0.041253 0.0411381 -0.0162088 0.040813 0.0409642 -0.0174432 0.0402029 0.0405874 
-0.0186717 0.0395871 0.0402032 -0.0197639 0.0388374 0.0396455 -0.0208442 0.0380858 0.0390849 
-0.0213502 0.0372432 0.0383896 -0.0218563 0.0364007 0.0376943 -5.90139e-05 0.0331026 0.0216793 
0.000554673 0.0332746 0.0225891 0.00105788 0.0335369 0.0235894 0.0015054 0.0338352 0.0246172 
0.00182672 0.034215 0.0257075 0.00209258 0.0346227 0.0268128 0.00221982 0.0351004 0.0279555 
0.00229314 0.0355979 0.0291039 0.00221713 0.0361504 0.0302683 0.00208928 0.0367145 0.0314312 
0.00180158 0.0373141 0.0325899 0.00146444 0.0379167 0.033741 0.000956551 0.0385295 0.034866 
0.00040265 0.0391367 0.0359777 -0.000330689 0.0397216 0.037037 -0.00110489 0.0402926 0.0380768 
-0.00206075 0.0408018 0.0390296 -0.00305004 0.0412902 0.0399572 -0.00421071 0.0416723 0.0407554 
-0.0053952 0.0420293 0.0415244 -0.00672253 0.0422364 0.0421179 -0.00806305 0.0424177 0.042681 
-0.00949808 0.0424143 0.0430269 -0.0109365 0.0423878 0.043345 -0.0124053 0.0421586 0.0434191 
-0.0138706 0.0419117 0.043471 -0.0152954 0.0414656 0.0432749 -0.0167133 0.0410081 0.0430639 
-0.0180253 0.0403757 0.0426238 -0.0193306 0.0397376 0.0421756 -0.02048 0.0389635 0.0415358 
-0.0216166 0.0381875 0.040893 -0.0221458 0.0373211 0.0401064 -0.022675 0.0364546 0.0393197 
7.5956e-05 0.0333222 0.0218302 0.000759841 0.0334767 0.0228033 0.00132848 0.0337251 0.0238791 
0.00183874 0.0340113 0.0249874 0.00221672 0.0343833 0.0261693 0.00253628 0.0347851 0.0273704 
0.0027098 0.0352615 0.0286193 0.00282605 0.0357595 0.0298773 0.00278371 0.0363177 0.0311606 
0.00268568 0.0368891 0.0324451 0.00241593 0.0375011 0.0337337 0.00209239 0.0381174 0.0350165 
0.00158303 0.0387486 0.0362795 0.00102286 0.0393748 0.0375295 0.000264498 0.0399818 0.0387288 
-0.000539639 0.040575 0.0399074 -0.00154724 0.0411066 0.0409937 -0.00259267 0.0416167 0.0420516 
-0.00383209 0.0420167 0.0429645 -0.00509859 0.0423904 0.0438435 -0.00652761 0.0426058 0.0445193 
-0.00797152 0.0427937 0.0451595 -0.00952216 0.0427847 0.0455443 -0.0110764 0.0427511 0.0458965 
-0.0126622 0.0425011 0.0459614 -0.0142436 0.0422324 0.0460005 -0.0157741 0.0417522 0.04575 
-0.0172964 0.0412602 0.0454825 -0.018693 0.0405852 0.0449533 -0.0200819 0.0399044 0.0444151 
-0.02129 0.0390849 0.0436651 -0.0224846 0.0382635 0.0429119 -0.0230364 0.037354 0.042007 
-0.0235882 0.0364445 0.0411021 0.000210364 0.033544 0.0219819 0.000964569 0.0336808 0.0230182 
0.00159876 0.0339151 0.0241695 0.00217191 0.0341891 0.0253584 0.00260669 0.0345531 0.0266322 
0.00298008 0.0349487 0.0279292 0.00320004 0.0354238 0.0292845 0.00335938 0.0359223 0.0306524 
0.00335086 0.0364861 0.0320548 0.00328279 0.0370648 0.0334613 0.00303112 0.0376893 0.0348802 
0.00272129 0.0383194 0.0362951 0.00221056 0.0389689 0.0376965 0.00164419 0.0396143 0.0390853 
0.000860827 0.0402437 0.0404251 2.67691e-05 0.0408592 0.041743 -0.00103263 0.0414134 0.0429633 
-0.0021343 0.0419454 0.0441522 -0.00345263 0.0423635 0.0451801 -0.00480133 0.0427538 0.0461696 
-0.00633229 0.0429776 0.0469281 -0.00787987 0.0431721 0.0476456 -0.00954644 0.0431576 0.0480695 
-0.0112168 0.0431168 0.0484558 -0.01292 0.0428458 0.0485113 -0.0146177 0.0425549 0.0485374 
-0.0162542 0.0420404 0.0482322 -0.0178811 0.0415135 0.0479078 -0.0193625 0.0407955 0.0472889 
-0.0208351 0.0400715 0.0466601 -0.0221019 0.0392061 0.0457993 -0.0233546 0.038339 0.0449351 
-0.023929 0.037386 0.0439114 -0.0245033 0.0364331 0.0428878 0.000299968 0.0337401 0.0221773 
0.0011285 0.0338493 0.0232756 0.00183296 0.0340581 0.0245031 0.00247396 0.0343079 0.025774 
0.00297111 0.0346506 0.0271431 0.00340406 0.0350265 0.0285408 0.0036765 0.0354852 0.0300095 
0.00388506 0.035969 0.0314953 0.00391671 0.0365221 0.0330281 0.00388495 0.0370915 0.0345688 
0.00365762 0.0377114 0.0361336 0.00336752 0.0383382 0.0376972 0.00286054 0.0389889 0.0392568 
0.00229263 0.0396365 0.0408051 0.00148704 0.0402718 0.0423095 0.000625144 0.0408938 0.043791 
-0.000487047 0.0414562 0.0451707 -0.00164671 0.0419962 0.0465157 -0.00304971 0.0424208 0.0476822 
-0.00448703 0.0428168 0.0488045 -0.00613025 0.0430406 0.0496618 -0.00779213 0.043234 0.0504713 
-0.0095877 0.0432092 0.0509384 -0.0113871 0.043157 0.0513616 -0.0132204 0.0428642 0.0513979 
-0.0150471 0.0425507 0.0514002 -0.0167988 0.0420047 0.0510186 -0.0185395 0.041446 0.0506152 
-0.0201099 0.0406916 0.0498781 -0.0216702 0.0399312 0.0491301 -0.0229946 0.0390301 0.0481285 
-0.0243041 0.0381273 0.0471234 -0.0248992 0.0371435 0.0459541 -0.0254944 0.0361597 0.0447848 
0.000387665 0.033935 0.0223746 0.0012907 0.0340162 0.0235348 0.00206563 0.0341991 0.0248385 
0.00277469 0.0344243 0.0261915 0.00333445 0.0347451 0.0276562 0.00382719 0.0351005 0.0291546 
0.00415237 0.0355424 0.030737 0.0044104 0.0360107 0.032341 0.00448251 0.0365524 0.0340048 
0.00448731 0.0371119 0.0356802 0.0042846 0.0377264 0.0373915 0.00401448 0.0383491 0.0391045 
0.00351148 0.0390004 0.0408231 0.00294221 0.0396494 0.0425319 0.00211452 0.0402901 0.0442018 
0.00122488 0.0409177 0.0458479 5.98561e-05 0.0414878 0.0473883 -0.00115788 0.0420351 0.0488904 
-0.0026458 0.0424659 0.0501965 -0.00417201 0.042867 0.0514526 -0.00592793 0.0430905 0.0524093 
-0.00770456 0.0432824 0.0533114 -0.00962968 0.0432472 0.0538219 -0.0115587 0.0431834 0.0542821 
-0.0135227 0.0428687 0.0542989 -0.0154787 0.0425325 0.0542768 -0.0173463 0.0419552 0.0538179 
-0.0192011 0.0413649 0.0533347 -0.0208605 0.0405744 0.0524781 -0.0225087 0.0397779 0.0516097 
-0.0238906 0.0388414 0.050466 -0.0252569 0.0379033 0.0493187 -0.0258728 0.0368892 0.0480027 
-0.0264887 0.0358751 0.0466866 0.000411775 0.03409 0.0226183 0.00139078 0.0341329 0.0238359 
0.00223832 0.0342775 0.0252125 0.00301785 0.0344648 0.0266451 0.00364324 0.0347485 0.0282047 
0.00419903 0.0350675 0.029804 0.00458085 0.0354744 0.0315023 0.00489244 0.0359086 0.0332276 
0.0050096 0.0364184 0.0350277 0.00505568 0.0369469 0.0368442 0.00488261 0.0375331 0.0387112 
0.00463748 0.0381286 0.0405837 0.00414344 0.0387561 0.0424751 0.00357761 0.0393824 0.0443587 
0.00273182 0.040004 0.0462118 0.00181799 0.0406134 0.0480408 0.000601819 0.0411685 0.0497624 
-0.000672874 0.0417012 0.0514421 -0.0022475 0.0421192 0.0529075 -0.00386489 0.0425075 0.0543164 
-0.00573889 0.0427176 0.0553864 -0.00763592 0.0428957 0.0563936 -0.00969809 0.0428439 0.0569504 
-0.0117643 0.0427632 0.0574489 -0.0138661 0.0424281 0.0574357 -0.0159585 0.0420713 0.057378 
-0.0179459 0.0414714 0.0568205 -0.0199187 0.0408586 0.0562358 -0.0216669 0.040047 0.0552331 
-0.0234025 0.0392296 0.0542177 -0.0248376 0.0382769 0.0529059 -0.0262564 0.0373227 0.0515905 
-0.0268901 0.0362997 0.0501059 -0.0275237 0.0352767 0.0486213 0.000431738 0.0342425 0.022865 
0.00148681 0.0342462 0.0241397 0.00240709 0.0343518 0.025589 0.00325725 0.0345003 0.0271011 
0.00394846 0.034746 0.0287555 0.00456753 0.0350275 0.0304557 0.00500623 0.0353983 0.03227 
0.00537166 0.0357972 0.0341168 0.00553417 0.0362736 0.0360537 0.00562183 0.0367697 0.0380117 
0.00547872 0.0373262 0.040035 0.00525892 0.037893 0.0420677 0.00477416 0.0384952 0.0441326 
0.00421208 0.0390971 0.046192 0.00334844 0.0396981 0.0482295 0.00241068 0.0402876 0.0502425 
0.00114346 0.0408263 0.0521466 -0.000188124 0.041343 0.0540053 -0.00184957 0.041747 0.0556313 
-0.0035583 0.0421213 0.0571942 -0.00555071 0.0423171 0.0583785 -0.0075685 0.0424806 0.0594916 
-0.00976822 0.0424119 0.0600947 -0.0119721 0.0423139 0.0606318 -0.0142121 0.0419584 0.0605878 
-0.0164414 0.0415812 0.0604938 -0.0185489 0.0409594 0.0598364 -0.0206399 0.0403246 0.0591488 
-0.022477 0.0394928 0.0579982 -0.0242998 0.0386555 0.056834 -0.0257879 0.0376878 0.0553524 
-0.027259 0.0367188 0.0538673 -0.0279101 0.0356883 0.0522128 -0.0285613 0.0346578 0.0505583 
0.000369645 0.0343456 0.0231516 0.00149892 0.0343002 0.0244756 0.00249082 0.0343544 0.0259906 
0.00341075 0.0344506 0.0275755 0.00416754 0.0346423 0.0293191 0.00484987 0.0348693 0.0311147 
0.00534602 0.0351844 0.0330407 0.00576605 0.0355272 0.0350051 0.00597525 0.0359469 0.0370758 
0.0061061 0.0363863 0.039173 0.00599537 0.036886 0.0413518 0.00580354 0.0373964 0.0435444 
0.00533156 0.0379434 0.0457845 0.00477687 0.0384908 0.0480219 0.00389962 0.0390399 0.0502486 
0.0029422 0.0395786 0.052451 0.00162841 0.0400706 0.0545454 0.000244298 0.0405418 0.0565909 
-0.00150025 0.0409058 0.0583864 -0.00329675 0.0412413 0.0601117 -0.00540506 0.0414048 0.0614165 
-0.00754119 0.0415369 0.0626411 -0.00987665 0.0414437 0.0632902 -0.0122163 0.0413221 0.0638645 
-0.0145922 0.0409505 0.063781 -0.0169558 0.0405579 0.0636413 -0.0191793 0.0399291 0.0628688 
-0.0213842 0.0392881 0.0620631 -0.0233039 0.0384594 0.0607478 -0.0252078 0.0376255 0.0594182 
-0.0267415 0.0366708 0.0577527 -0.0282574 0.0357151 0.0560838 -0.0289222 0.0347064 0.0542505 
-0.029587 0.0336977 0.0524172 0.000300258 0.0344444 0.0234417 0.00150357 0.034349 0.0248144 
0.00256699 0.0343505 0.0263944 0.00355661 0.0343934 0.0280516 0.00437897 0.0345297 0.0298837 
0.00512456 0.0347006 0.0317745 0.00567821 0.0349582 0.0338118 0.0061529 0.0352432 0.0358934 
0.00640891 0.0356041 0.0380977 0.0065831 0.0359845 0.0403338 0.00650495 0.0364251 0.042668 
0.00634134 0.0368767 0.0450204 0.00588244 0.0373658 0.0474359 0.00533546 0.037856 0.0498516 
0.00444499 0.0383505 0.0522679 0.00346828 0.0388355 0.0546601 0.00210832 0.0392782 0.0569454 
0.000672065 0.0397012 0.0591785 -0.00115524 0.040023 0.0611442 -0.00303921 0.0403174 0.0630328 
-0.00526319 0.040447 0.0644587 -0.00751743 0.0405462 0.0657951 -0.00998849 0.0404278 0.0664901 
-0.0124637 0.040282 0.0671017 -0.0149753 0.0398946 0.0669779 -0.0174729 0.0394871 0.0667916 
-0.019812 0.0388528 0.0659027 -0.0221305 0.0382069 0.0649776 -0.0241323 0.0373833 0.0634961 
-0.0261168 0.036555 0.0619996 -0.0276954 0.0356158 0.0601489 -0.0292555 0.0346758 0.058295 
-0.0299336 0.0336915 0.0562821 -0.0306116 0.0327073 0.0542692 0.000132448 0.0344937 0.0237578 
0.00140443 0.0343393 0.0251688 0.00253452 0.0342769 0.0268032 0.00358919 0.0342537 0.0285218 
0.00447291 0.0343193 0.0304314 0.00527773 0.0344178 0.0324059 0.00588529 0.0345985 0.0345427 
0.00641127 0.0348051 0.0367294 0.00671132 0.0350835 0.0390543 0.00692637 0.0353803 0.0414162 
0.00687932 0.0357339 0.0438918 0.0067429 0.0360978 0.04639 0.00629771 0.0364973 0.0489659 
0.00575967 0.0368981 0.0515449 0.00485948 0.0373038 0.0541359 0.00386761 0.0377009 0.0567033 
0.00246824 0.0380604 0.059166 0.000987156 0.0384019 0.0615735 -0.000912765 0.0386517 0.0636983 
-0.00287366 0.0388765 0.0657393 -0.00520044 0.0389511 0.0672777 -0.00755971 0.038998 0.0687177 
-0.0101518 0.0388465 0.0694524 -0.0127479 0.0386699 0.070095 -0.01538 0.0382732 0.0699267 
-0.0179964 0.0378582 0.06969 -0.0204365 0.0372379 0.0686834 -0.022854 0.0366072 0.0676378 
-0.0249249 0.0358175 0.0659931 -0.0269772 0.0350236 0.0643328 -0.0285906 0.0341331 0.0623045 
-0.030185 0.0332419 0.0602731 -0.0308721 0.0323153 0.0580915 -0.0315592 0.0313887 0.05591 
-4.65463e-05 0.0345373 0.024077 0.0012935 0.034323 0.0255249 0.00248971 0.0341953 0.0272125 
0.00360889 0.0341047 0.0289913 0.0045535 0.0340979 0.0309771 0.0054171 0.0341221 0.0330341 
0.00607816 0.0342237 0.035269 0.00665505 0.0343495 0.0375594 0.00699881 0.0345427 0.0400036 
0.00725444 0.0347531 0.0424897 0.00723832 0.0350165 0.0451052 0.00712898 0.0352896 0.0477474 
0.00669758 0.0355958 0.0504821 0.0061686 0.0359035 0.0532227 0.00525909 0.0362164 0.0559867 
0.00425252 0.0365219 0.0587276 0.00281452 0.0367942 0.0613662 0.00128944 0.0370505 0.0639466 
-0.000681939 0.0372248 0.0662292 -0.00271856 0.0373767 0.0684214 -0.00514668 0.0373941 0.0700714 
-0.00760949 0.0373866 0.0716141 -0.0103209 0.0372008 0.0723877 -0.0130364 0.0369927 0.0730606 
-0.0157872 0.0365874 0.0728473 -0.0185207 0.0361659 0.0725596 -0.02106 0.0355618 0.0714353 
-0.0235747 0.0349485 0.0702692 -0.0257134 0.034196 0.0684616 -0.0278321 0.0334399 0.0666378 
-0.0294791 0.0326018 0.0644328 -0.0311067 0.0317631 0.0622248 -0.0318024 0.0308979 0.0598758 
-0.0324981 0.0300327 0.0575267 -0.000336966 0.0345429 0.0244055 0.00106223 0.0342616 0.025878 
0.00231612 0.0340593 0.0276049 0.00349151 0.0338908 0.0294293 0.00448896 0.0337986 0.031475 
0.00540338 0.0337344 0.0335974 0.0061102 0.0337402 0.0359113 0.00673045 0.0337676 0.0382853 
0.00711093 0.033855 0.0408256 0.0074005 0.0339574 0.0434117 0.00740972 0.0341063 0.0461389 
0.00732249 0.0342633 0.0488959 0.00690205 0.0344484 0.0517562 0.00638029 0.0346345 0.0546244 
0.00546339 0.0348244 0.0575237 0.00444525 0.0350077 0.0604001 0.00297712 0.0351622 0.0631747 
0.00141782 0.0353032 0.0658888 -0.000608746 0.035375 0.0682924 -0.00270377 0.0354281 0.0706002 
-0.00520957 0.0353691 0.0723336 -0.00775167 0.0352896 0.0739525 -0.0105539 0.0350629 0.074751 
-0.01336 0.0348178 0.075442 -0.0162003 0.0344112 0.0751865 -0.0190219 0.0339914 0.0748519 
-0.0216347 0.033423 0.073628 -0.0242215 0.0328472 0.0723602 -0.0264087 0.0321595 0.0704192 
-0.0285748 0.031469 0.0684616 -0.030244 0.0307142 0.0661144 -0.0318934 0.029959 0.0637645 
-0.0325939 0.0291853 0.0612829 -0.0332944 0.0284115 0.0588013 -0.000642933 0.0345432 0.0247355 
0.00081417 0.0341939 0.0262306 0.00212456 0.0339157 0.0279949 0.00335499 0.0336678 0.029863 
0.00440416 0.0334884 0.0319663 0.00536829 0.0333339 0.0341516 0.00611979 0.0332415 0.0365419 
0.00678235 0.033168 0.0389966 0.00719858 0.0331468 0.0416299 0.00752115 0.0331383 0.0443125 
0.00755494 0.0331692 0.0471475 0.00748912 0.0332066 0.0500153 0.00707926 0.0332667 0.0529966 
0.00656446 0.0333273 0.0559876 0.00564043 0.0333898 0.0590169 0.00461116 0.0334468 0.0620234 
0.00311409 0.0334792 0.0649286 0.00152194 0.0335007 0.0677709 -0.000557548 0.0334661 0.0702903 
-0.00270856 0.0334168 0.0727088 -0.00528874 0.0332789 0.0745216 -0.00790674 0.0331249 0.0762131 
-0.0107958 0.0328563 0.0770346 -0.0136887 0.0325736 0.0777419 -0.0166142 0.0321666 0.0774445 
-0.01952 0.0317495 0.0770635 -0.0222026 0.0312196 0.0757426 -0.0248578 0.0306841 0.0743758 
-0.027091 0.0300651 0.0723055 -0.0293019 0.029444 0.0702183 -0.0309917 0.0287769 0.0677337 
-0.0326614 0.0281096 0.0652466 -0.0333661 0.0274314 0.0626373 -0.0340709 0.0267532 0.0600281 
-0.00106856 0.0345284 0.0250621 0.000434641 0.0341065 0.026566 0.00179 0.0337458 0.0283512 
0.00306405 0.0334111 0.0302452 0.00415378 0.0331353 0.0323859 0.00515655 0.0328804 0.0346124 
0.00594192 0.0326781 0.0370536 0.00663613 0.0324912 0.039562 0.0070779 0.0323471 0.0422566 
0.00742366 0.0322129 0.0450025 0.00747341 0.0321093 0.0479062 0.00742118 0.0320103 0.0508437 
0.00701663 0.0319273 0.0538978 0.00650474 0.0318439 0.0569618 0.00557424 0.0317598 0.0600645 
0.00453615 0.0316711 0.0631437 0.00301985 0.0315625 0.0661179 0.00140641 0.0314459 0.0690271 
-0.000704942 0.0312886 0.0716031 -0.0028893 0.0311211 0.0740748 -0.00551174 0.0308931 0.0759216 
-0.00817264 0.0306546 0.0776431 -0.0111091 0.030341 0.078467 -0.014049 0.0300184 0.0791732 
-0.0170196 0.0296168 0.0788439 -0.0199697 0.029209 0.0784286 -0.0226882 0.028731 0.0770477 
-0.0253784 0.0282498 0.0756198 -0.027634 0.0277179 0.0734736 -0.0298668 0.0271849 0.0713103 
-0.0315653 0.0266254 0.0687467 -0.0332436 0.0260659 0.0661807 -0.0339496 0.0255024 0.0634987 
-0.0346555 0.0249389 0.0608167 -0.00151413 0.0345111 0.0253881 3.32001e-05 0.0340157 0.0268984 
0.00143161 0.0335715 0.0287018 0.00274737 0.0331489 0.0306188 0.00387579 0.032775 0.0327935 
0.00491536 0.0324181 0.0350577 0.0057328 0.0321038 0.0375455 0.00645689 0.0318014 0.0401031 
0.00692248 0.0315321 0.0428538 0.0072898 0.0312698 0.0456573 0.0073541 0.031029 0.0486232 
0.00731414 0.0307909 0.0516235 0.00691403 0.0305615 0.0547424 0.00640438 0.0303313 0.0578711 
0.00546751 0.0300973 0.0610379 0.00442099 0.0298598 0.0641802 0.00288708 0.0296069 0.0672131 
0.00125427 0.0293491 0.0701791 -0.000885434 0.0290662 0.0728017 -0.00309937 0.028778 0.0753172 
-0.00575873 0.0284581 0.0771902 -0.00845701 0.0281333 0.0789347 -0.0114342 0.0277742 0.0797576 
-0.0144147 0.0274115 0.0804598 -0.0174236 0.0270162 0.0801001 -0.0204114 0.0266187 0.0796527 
-0.0231601 0.026195 0.0782178 -0.0258797 0.0257702 0.0767353 -0.0281538 0.0253285 0.0745219 
-0.0304046 0.0248866 0.0722915 -0.03211 0.0244382 0.0696586 -0.0337949 0.0239898 0.0670235 
-0.0345015 0.0235442 0.0642779 -0.0352081 0.0230986 0.0615323 -0.00208261 0.0345095 0.0257078 
-0.000504988 0.0339387 0.0272098 0.000923026 0.0334077 0.0290132 0.00226723 0.0328934 0.0309336 
0.00342144 0.0324169 0.033119 0.00448511 0.0319531 0.0353959 0.00532242 0.0315213 0.0379013 
0.00606449 0.0310978 0.0404771 0.00654279 0.0306974 0.0432477 0.00692102 0.0303011 0.0460705 
0.00699067 0.0299176 0.0490538 0.00695463 0.0295349 0.0520699 0.00655346 0.0291546 0.0551993 
0.00604187 0.0287729 0.0583364 0.00509967 0.0283855 0.0615035 0.00404755 0.0279959 0.064644 
0.0025069 0.0275967 0.0676658 0.00086762 0.0271958 0.0706191 -0.00127723 0.0267867 0.0732212 
-0.00349576 0.0263773 0.0757156 -0.0061564 0.0259662 0.0775639 -0.00885545 0.0255561 0.0792838 
-0.0118298 0.0251533 0.0800838 -0.014807 0.0247522 0.0807638 -0.0178101 0.0243661 0.080388 
-0.020792 0.0239817 0.079925 -0.0235339 0.0236155 0.0784816 -0.0262468 0.0232505 0.0769908 
-0.0285148 0.0229027 0.0747742 -0.0307597 0.0225554 0.0725405 -0.0324602 0.0222213 0.0699066 
-0.0341404 0.0218875 0.0672704 -0.0348449 0.0215628 0.0645238 -0.0355494 0.0212382 0.0617771 
-0.00267507 0.0345111 0.0260263 -0.00106986 0.0338643 0.027517 0.00038514 0.0332459 0.029317 
0.00175519 0.0326393 0.0312368 0.00293267 0.0320592 0.0334285 0.00401797 0.0314876 0.0357132 
0.00487277 0.0309371 0.0382305 0.00563049 0.0303913 0.0408185 0.00611933 0.0298588 0.043602 
0.0065064 0.0293275 0.0464365 0.00657961 0.0288001 0.0494285 0.00654586 0.0282717 0.0524513 
0.00614255 0.0277396 0.0555806 0.00562822 0.0272056 0.0587151 0.00468087 0.0266641 0.0618701 
0.00362371 0.0261218 0.064996 0.00207845 0.0255758 0.0679931 0.000435208 0.0250315 0.0709202 
-0.00171025 0.0244961 0.0734887 -0.0039285 0.0239654 0.0759494 -0.00658348 0.0234632 0.0777629 
-0.00927616 0.0229679 0.079449 -0.012239 0.0225218 0.0802218 -0.0152045 0.0220828 0.0808761 
-0.0181932 0.0217064 0.0804869 -0.0211606 0.0213355 0.0800116 -0.0238886 0.0210277 0.0785685 
-0.0265877 0.0207231 0.0770786 -0.0288448 0.0204697 0.074871 -0.031079 0.0202177 0.0726466 
-0.0327725 0.0199986 0.070025 -0.0344457 0.01978 0.067401 -0.0351476 0.0195769 0.0646656 
-0.0358495 0.0193738 0.0619302 -0.00338853 0.0345613 0.0263493 -0.00177032 0.0338393 0.027814 
-0.000302384 0.0331337 0.0295918 0.00107983 0.032435 0.0314907 0.00226772 0.0317516 0.0336639 
0.00336216 0.0310726 0.0359302 0.00422296 0.0304046 0.038429 0.0049853 0.0297381 0.0409971 
0.00547497 0.0290761 0.0437569 0.00586178 0.0284131 0.046565 0.00593148 0.0277474 0.0495224 
0.00589384 0.0270794 0.052507 0.0054854 0.026404 0.0555857 0.00496658 0.0257268 0.0586658 
0.00401724 0.0250431 0.0617516 0.00295981 0.0243602 0.0648055 0.00142198 0.0236815 0.0677177 
-0.000211423 0.0230079 0.0705592 -0.00233466 0.0223605 0.0730379 -0.00452833 0.0217224 0.0754108 
-0.00714463 0.0211408 0.077148 -0.00979711 0.0205713 0.0787619 -0.0127089 0.0200881 0.0794914 
-0.015623 0.0196167 0.0801068 -0.0185575 0.0192492 0.0797178 -0.0214713 0.0188908 0.0792461 
-0.0241521 0.018634 0.0778429 -0.0268049 0.0183826 0.0763945 -0.0290288 0.0182122 0.0742515 
-0.0312303 0.0180439 0.072092 -0.0329059 0.0179269 0.0695424 -0.0345615 0.0178103 0.0669903 
-0.0352581 0.0177161 0.0643218 -0.0359547 0.0176218 0.0616533 -0.00412921 0.0346225 0.0266735 
-0.0025013 0.0338253 0.0281086 -0.00102358 0.0330327 0.0298601 0.000367722 0.0322419 0.0317334 
0.00156312 0.0314553 0.0338827 0.00266389 0.030669 0.0361246 0.00352811 0.0298837 0.0385981 
0.0042926 0.0290969 0.041139 0.00478089 0.028306 0.0438669 0.00516542 0.0275121 0.0466401 
0.00523001 0.0267091 0.0495531 0.00518711 0.025903 0.0524894 0.00477285 0.0250861 0.0555061 
0.00424914 0.0242679 0.0585202 0.00329851 0.0234446 0.061524 0.0022419 0.022624 0.0644929 
0.000714201 0.0218157 0.0673067 -0.000906254 0.021016 0.0700492 -0.00300213 0.0202597 0.0724256 
-0.00516576 0.0195174 0.0746984 -0.00773594 0.0188591 0.07635 -0.0103406 0.0182179 0.077883 
-0.0131925 0.0176989 0.0785656 -0.0160463 0.0171963 0.0791391 -0.0189176 0.0168377 0.0787535 
-0.0217689 0.0164914 0.0782888 -0.024395 0.0162841 0.0769345 -0.0269943 0.0160841 0.0755367 
-0.0291799 0.0159941 0.0734709 -0.0313438 0.0159071 0.0713888 -0.032999 0.0158891 0.0689246 
-0.0346346 0.0158717 0.0664579 -0.0353253 0.0158834 0.0638688 -0.0360161 0.0158951 0.0612797 
-0.00498405 0.0347607 0.0270265 -0.00336048 0.0338915 0.0284179 -0.00188623 0.0330154 0.0301244 
-0.000498557 0.0321365 0.0319517 0.000692837 0.0312515 0.0340528 0.00178911 0.0303635 0.0362448 
0.00264757 0.0294678 0.038664 0.00340576 0.0285684 0.0411479 0.00388631 0.0276586 0.0438109 
0.00426298 0.0267448 0.0465153 0.00431935 0.0258184 0.0493477 0.00426899 0.0248889 0.0521988 
0.00384995 0.0239487 0.0551147 0.00332347 0.0230083 0.0580236 0.00237797 0.0220673 0.0609054 
0.00132976 0.0211313 0.0637496 -0.000175024 0.0202177 0.0664266 -0.00176861 0.0193157 0.0690324 
-0.00381739 0.0184736 0.0712736 -0.00593036 0.0176493 0.0734152 -0.00842846 0.0169317 0.0749591 
-0.0109589 0.0162351 0.0763909 -0.0137213 0.0156885 0.0770195 -0.0164854 0.0151617 0.0775459 
-0.0192645 0.0148085 0.0771735 -0.0220246 0.0144701 0.0767269 -0.0245715 0.0142986 0.0754462 
-0.0270928 0.0141357 0.0741243 -0.0292226 0.0141054 0.0721703 -0.0313317 0.0140786 0.0702005 
-0.0329568 0.0141359 0.0678604 -0.0345627 0.014194 0.0655176 -0.0352447 0.0142883 0.0630458 
-0.0359267 0.0143827 0.0605739 -0.00586816 0.0349188 0.027387 -0.00425254 0.0339782 0.0287309 
-0.00278515 0.0330196 0.0303876 -0.00140437 0.0320537 0.0321638 -0.000219925 0.0310716 0.0342105 
0.000869064 0.0300831 0.036346 0.0017194 0.0290789 0.0387036 0.00246915 0.0280689 0.0411227 
0.00294032 0.0270428 0.0437122 0.0033077 0.0260117 0.0463393 0.00335504 0.0249655 0.0490817 
0.00329667 0.0239164 0.0518382 0.0028731 0.0228575 0.0546433 0.00234441 0.0217998 0.0574371 
0.00140569 0.0207467 0.0601866 0.000367814 0.0197011 0.0628959 -0.00111077 0.0186883 0.0654261 
-0.00267393 0.0176903 0.0678856 -0.00467055 0.0167682 0.0699832 -0.00672756 0.0158676 0.0719855 
-0.00914694 0.0150952 0.073416 -0.0115964 0.0143474 0.0747415 -0.0142618 0.0137753 0.0753144 
-0.0169286 0.013226 0.0757923 -0.019608 0.0128773 0.0754356 -0.0222695 0.0125457 0.07501 
-0.0247308 0.0124064 0.0738093 -0.0271681 0.0122771 0.0725698 -0.0292375 0.0123011 0.0707364 
-0.0312873 0.0123292 0.0688878 -0.0328799 0.0124557 0.0666817 -0.0344537 0.0125831 0.0644728 
-0.0351262 0.0127541 0.0621279 -0.0357987 0.0129251 0.0597829 -0.00685538 0.0351718 0.0278098 
-0.00526006 0.0341652 0.029093 -0.00381092 0.0331306 0.0306827 -0.00244767 0.0320849 0.0323889 
-0.00127912 0.0310145 0.0343592 -0.000205511 0.0299352 0.0364152 0.000630751 0.028834 0.0386856 
0.00136699 0.0277257 0.0410141 0.00182623 0.026598 0.0435033 0.00218269 0.0254655 0.0460261 
0.00222223 0.024318 0.048652 0.00215793 0.0231687 0.0512878 0.00173491 0.0220135 0.0539577 
0.00120984 0.0208614 0.0566127 0.000286749 0.0197216 0.0592096 -0.00073127 0.0185917 0.0617644 
-0.00217123 0.0175059 0.0641326 -0.00369106 0.0164376 0.0664317 -0.00562031 0.0154593 0.0683766 
-0.00760591 0.0145051 0.0702314 -0.00992965 0.0136951 0.0715455 -0.0122812 0.012912 0.0727621 
-0.0148323 0.0123215 0.0732807 -0.0173847 0.0117556 0.0737121 -0.0199479 0.0114068 0.0733765 
-0.0224946 0.0110765 0.0729775 -0.0248557 0.0109539 0.0718656 -0.0271946 0.0108422 0.0707176 
-0.029192 0.0108974 0.0690172 -0.0311712 0.0109573 0.0673023 -0.0327234 0.0111262 0.0652456 
-0.0342573 0.0112963 0.0631859 -0.0349173 0.0115171 0.060985 -0.0355773 0.011738 0.0587841 
-0.00787245 0.0354523 0.0282507 -0.006301 0.0343813 0.0294692 -0.00487341 0.0332725 0.030987 
-0.00353078 0.0321492 0.0326179 -0.00238072 0.030993 0.0345053 -0.00132482 0.0298257 0.0364752 
-0.000504358 0.0286306 0.038651 0.000216913 0.0274277 0.0408813 0.00066348 0.0262028 0.0432624 
0.00100854 0.0249734 0.0456731 0.00104064 0.0237299 0.0481749 0.000971014 0.0224861 0.0506825 
0.000550009 0.021241 0.0532101 3.02521e-05 0.0200012 0.0557195 -0.000874643 0.018782 0.0581577 
-0.00187005 0.0175753 0.0605525 -0.00326778 0.0164239 0.0627543 -0.00474057 0.0152927 0.0648888 
-0.00659803 0.0142651 0.0666785 -0.00850774 0.0132639 0.0683834 -0.010731 0.0124213 0.0695801 
-0.0129797 0.0116076 0.0706871 -0.0154115 0.0110006 0.0711519 -0.0178444 0.0104198 0.0715373 
-0.0202867 0.0100696 0.0712244 -0.0227138 0.00973895 0.0708537 -0.0249706 0.00962862 0.0698331 
-0.0272069 0.00952994 0.0687792 -0.029129 0.00960976 0.0672154 -0.0310343 0.00969464 0.0656377 
-0.0325438 0.00989832 0.0637348 -0.0340356 0.0101032 0.0618289 -0.0346823 0.0103661 0.059777 
-0.0353289 0.0106291 0.0577251 -0.00897816 0.0358324 0.0287899 -0.00744017 0.0347041 0.0299331 
-0.00604269 0.0335302 0.0313644 -0.00472847 0.0323391 0.0329042 -0.003603 0.0311089 0.0346904 
-0.00257 0.0298661 0.0365551 -0.00176818 0.0285917 0.0386161 -0.00106375 0.0273093 0.0407282 
-0.000629019 0.0260043 0.0429815 -0.000293652 0.0246958 0.0452612 -0.000264663 0.0233761 0.047622 
-0.000334541 0.022058 0.0499858 -0.000745968 0.0207449 0.0523596 -0.00125239 0.0194394 0.0547132 
-0.0021293 0.0181638 0.0569877 -0.00309217 0.016903 0.0592187 -0.00443714 0.0157083 0.0612562 
-0.00585241 0.0145359 0.063229 -0.00762805 0.0134776 0.0648707 -0.00945207 0.0124473 0.0664333 
-0.0115664 0.0115849 0.0675216 -0.0137041 0.0107522 0.0685277 -0.0160099 0.010133 0.0689453 
-0.0183168 0.00954058 0.0692908 -0.0206325 0.00918388 0.0690021 -0.0229344 0.00884718 0.0686609 
-0.0250813 0.00873553 0.0677291 -0.0272096 0.00863588 0.0667668 -0.0290507 0.00872023 0.0653355 
-0.0308763 0.00880991 0.0638913 -0.0323375 0.0090247 0.0621399 -0.0337817 0.00924084 0.0603854 
-0.0344124 0.00952131 0.0584829 -0.035043 0.00980179 0.0565804 -0.0101126 0.0362448 0.029361 
-0.00861119 0.0350615 0.0304254 -0.00724659 0.0338254 0.0317655 -0.00596333 0.0325697 0.0332092 
-0.00486444 0.0312693 0.0348881 -0.00385601 0.0299551 0.0366415 -0.00307376 0.0286061 0.0385811 
-0.00238677 0.0272491 0.0405684 -0.0019636 0.0258696 0.0426876 -0.00163738 0.0244877 0.0448302 
-0.00161008 0.0230983 0.0470445 -0.00167857 0.0217124 0.0492594 -0.00207797 0.0203384 0.0514758 
-0.00256846 0.0189745 0.0536703 -0.00341421 0.0176498 0.0557795 -0.00434132 0.0163423 0.0578454 
-0.0056301 0.0151115 0.0597192 -0.00698447 0.0139048 0.0615313 -0.00867504 0.012822 0.0630273 
-0.0104102 0.0117685 0.06445 -0.0124128 0.0108902 0.0654328 -0.0144369 0.0100423 0.0663408 
-0.0166145 0.00941229 0.0667134 -0.0187932 0.00880936 0.067021 -0.0209805 0.00844457 0.0667571 
-0.0231554 0.00809998 0.0664458 -0.0251907 0.0079826 0.065602 -0.027209 0.00787746 0.0647302 
-0.0289673 0.00795982 0.0634304 -0.0307114 0.00804774 0.0621182 -0.0321225 0.00826601 0.0605176 
-0.0335174 0.00848574 0.0589139 -0.0341312 0.0087758 0.0571609 -0.0347449 0.00906585 0.0554079 
-0.0113187 0.0367478 0.0300646 -0.00985998 0.0355177 0.0310426 -0.00853356 0.0342303 0.0322811 