# vtk DataFile Version 3.0
vtk output
ASCII
DATASET RECTILINEAR_GRID
FIELD FieldData 2
base_index 1 3 int
68 34 68 
avtOriginalBounds 1 6 double
3.33333 10 -3.33333 3.33333 3.33333 10 
DIMENSIONS 34 34 34
X_COORDINATES 34 float
3.33333 3.53535 3.73737 3.93939 4.14141 4.34343 4.54545 4.74747 4.94949 
5.15152 5.35354 5.55556 5.75758 5.9596 6.16162 6.36364 6.56566 6.76768 
6.9697 7.17172 7.37374 7.57576 7.77778 7.9798 8.18182 8.38384 8.58586 
8.78788 8.9899 9.19192 9.39394 9.59596 9.79798 10 
Y_COORDINATES 34 float
-3.33333 -3.13131 -2.92929 -2.72727 -2.52525 -2.32323 -2.12121 -1.91919 -1.71717 
-1.51515 -1.31313 -1.11111 -0.909091 -0.707071 -0.505051 -0.30303 -0.10101 0.10101 
0.30303 0.50505 0.70707 0.909091 1.11111 1.31313 1.51515 1.71717 1.91919 
2.12121 2.32323 2.52525 2.72727 2.92929 3.13131 3.33333 
Z_COORDINATES 34 float
3.33333 3.53535 3.73737 3.93939 4.14141 4.34343 4.54545 4.74747 4.94949 
5.15152 5.35354 5.55556 5.75758 5.9596 6.16162 6.36364 6.56566 6.76768 
6.9697 7.17172 7.37374 7.57576 7.77778 7.9798 8.18182 8.38384 8.58586 
8.78788 8.9899 9.19192 9.39394 9.59596 9.79798 10 
POINT_DATA 39304
FIELD FieldData 1
grad 3 39304 float
-0.0213572 0.00635335 0.0217269 -0.0287283 0.00636954 0.0150128 -0.036472 0.00543609 0.00671907 
-0.0442952 0.00384832 -0.0025672 -0.0522989 0.000777385 -0.0141033 -0.0601106 -0.00313863 -0.0268955 
-0.0674422 -0.00916734 -0.042828 -0.0740614 -0.0161914 -0.0602218 -0.0787079 -0.0259718 -0.0816624 
-0.0819067 -0.0367664 -0.104492 -0.0806419 -0.0506882 -0.131605 -0.0773037 -0.0653869 -0.159439 
-0.0668028 -0.0827691 -0.189768 -0.0543473 -0.1004 -0.219461 -0.0342688 -0.119001 -0.246676 
-0.0134957 -0.137243 -0.271863 0.0103653 -0.153887 -0.288037 0.0331277 -0.169783 -0.301829 
0.0502602 -0.181845 -0.30341 0.0652502 -0.19298 -0.303316 0.0673853 -0.198554 -0.293178 
0.0676898 -0.203094 -0.282177 0.0548748 -0.200214 -0.264993 0.0412956 -0.196421 -0.247433 
0.0209915 -0.184585 -0.226574 0.000779406 -0.172262 -0.205651 -0.0183975 -0.154444 -0.184021 
-0.0372208 -0.136549 -0.16251 -0.0506207 -0.117478 -0.142803 -0.0637725 -0.0984972 -0.123239 
-0.0710925 -0.0816313 -0.107051 -0.0783101 -0.0648377 -0.0909411 -0.0806204 -0.0515181 -0.0785857 
-0.0829306 -0.0381983 -0.0662303 -0.0212388 0.00577536 0.0195204 -0.0292528 0.00603436 0.0129392 
-0.0378696 0.00549248 0.00470054 -0.046688 0.00438185 -0.00460044 -0.055963 0.00198203 -0.0163094 
-0.0651676 -0.0011707 -0.0293886 -0.0741958 -0.00620571 -0.0458936 -0.082597 -0.0121497 -0.0640282 
-0.0892617 -0.0206108 -0.0866751 -0.0944619 -0.0300253 -0.110909 -0.0951463 -0.0423795 -0.140038 
-0.0935789 -0.0554947 -0.170007 -0.0842323 -0.0712388 -0.202882 -0.072625 -0.0872597 -0.234971 
-0.0522007 -0.10436 -0.263995 -0.0307914 -0.121143 -0.290513 -0.00500402 -0.13652 -0.30589 
0.01986 -0.151186 -0.318376 0.0399922 -0.162211 -0.31605 0.0580756 -0.172374 -0.311872 
0.0638665 -0.177372 -0.296588 0.0678611 -0.181467 -0.280599 0.0589832 -0.179095 -0.259555 
0.0492766 -0.175953 -0.238389 0.0322777 -0.166023 -0.216142 0.0152372 -0.155663 -0.193992 
-0.00227022 -0.140455 -0.172926 -0.0195338 -0.125151 -0.152024 -0.0330572 -0.108378 -0.133639 
-0.0463791 -0.0916653 -0.115395 -0.0549651 -0.0763369 -0.100465 -0.0634394 -0.0610672 -0.0856055 
-0.0665583 -0.0486117 -0.0741705 -0.0696773 -0.0361562 -0.0627354 -0.0207127 0.00596051 0.017348 
-0.0291993 0.00656727 0.0109179 -0.0384776 0.00655833 0.00279376 -0.0480597 0.00609517 -0.00643272 
-0.0583304 0.00460244 -0.0181579 -0.0686367 0.00249287 -0.0313261 -0.0790321 -0.00115881 -0.0481018 
-0.0888844 -0.00557428 -0.0666227 -0.0972327 -0.0121048 -0.0899764 -0.104126 -0.0194661 -0.115065 
-0.106532 -0.0293886 -0.145503 -0.106566 -0.0400252 -0.176888 -0.0984079 -0.0531282 -0.211542 
-0.0877521 -0.0665831 -0.245326 -0.0673563 -0.08141 -0.275718 -0.0457275 -0.096097 -0.30327 
-0.0186181 -0.110163 -0.3182 0.00773724 -0.123705 -0.329879 0.0302286 -0.134559 -0.324891 
0.050768 -0.144686 -0.31793 0.0595966 -0.150447 -0.299134 0.0666662 -0.155405 -0.279739 
0.0611293 -0.154603 -0.256057 0.0547189 -0.153101 -0.232419 0.0406218 -0.145443 -0.209153 
0.0263816 -0.137374 -0.186088 0.0105309 -0.124675 -0.165293 -0.0051653 -0.111859 -0.144695 
-0.0184919 -0.0972511 -0.127137 -0.0316596 -0.0826772 -0.109721 -0.0410924 -0.0689049 -0.095636 
-0.0504087 -0.05518 -0.0816187 -0.0541332 -0.0437319 -0.0708386 -0.0578577 -0.0322837 -0.0600585 
-0.0199699 0.00655108 0.0151936 -0.0288387 0.00756135 0.0089243 -0.0386661 0.00816046 0.000946344 
-0.0488892 0.00843527 -0.00815823 -0.0600089 0.00797501 -0.0198166 -0.0712623 0.00705728 -0.0329685 
-0.0828497 0.0049959 -0.0498544 -0.0939774 0.00234716 -0.0685735 -0.103832 -0.0019281 -0.0923686 
-0.112254 -0.00687843 -0.118019 -0.11626 -0.0139103 -0.149393 -0.117807 -0.0215925 -0.18181 
-0.110855 -0.0315218 -0.217835 -0.101205 -0.0419028 -0.252942 -0.081037 -0.0540459 -0.284467 
-0.05941 -0.0662973 -0.312897 -0.0312997 -0.0790302 -0.327567 -0.00377729 -0.0915038 -0.338702 
0.0207329 -0.102649 -0.331714 0.0433899 -0.113236 -0.322662 0.0549279 -0.120473 -0.30122 
0.0647453 -0.126986 -0.279261 0.0622328 -0.128318 -0.253591 0.0588123 -0.128984 -0.228082 
0.047403 -0.123791 -0.203992 0.0357657 -0.118186 -0.180179 0.021565 -0.107943 -0.159499 
0.00744026 -0.0975614 -0.139044 -0.0055194 -0.0850463 -0.122049 -0.0183606 -0.0725438 -0.105199 
-0.0284177 -0.0603373 -0.091741 -0.0383556 -0.0481685 -0.0783483 -0.0425777 -0.0378036 -0.0680822 
-0.0467998 -0.0274387 -0.0578161 -0.0186709 0.00760237 0.0130275 -0.0277214 0.00906748 0.0069557 
-0.0378423 0.0103353 -0.000796946 -0.0484204 0.0114165 -0.00966583 -0.060035 0.0120749 -0.0210649 
-0.0718526 0.0124473 -0.0339521 -0.0841777 0.0121044 -0.0505594 -0.0961146 0.0113657 -0.0690027 
-0.106976 0.00953122 -0.0925305 -0.116463 0.00719012 -0.117928 -0.121709 0.00328705 -0.149092 
-0.12451 -0.00120537 -0.18132 -0.118863 -0.0077338 -0.217223 -0.110461 -0.0148487 -0.252214 
-0.0913223 -0.0242511 -0.283649 -0.0705898 -0.034077 -0.311967 -0.0427746 -0.0457857 -0.326433 
-0.0153584 -0.0575634 -0.337333 0.0100141 -0.0696954 -0.329962 0.0337162 -0.08145 -0.320519 
0.0473963 -0.0909398 -0.298643 0.059458 -0.0997405 -0.276267 0.0599212 -0.103602 -0.250306 
0.0594663 -0.106773 -0.224532 0.0509311 -0.103866 -0.200402 0.0420883 -0.100518 -0.176569 
0.0297856 -0.0922101 -0.156078 0.0174806 -0.0837428 -0.135821 0.00514085 -0.0728318 -0.119141 
-0.0071218 -0.0619208 -0.102605 -0.0175704 -0.0510132 -0.0894768 -0.0278999 -0.0401377 -0.0764127 
-0.0325111 -0.0307978 -0.066429 -0.0371223 -0.0214579 -0.0564452 -0.0170489 0.00892119 0.0108544 
-0.0261647 0.0108709 0.00500162 -0.0364307 0.0128426 -0.00247978 -0.047198 0.0147701 -0.0110469 
-0.0591017 0.0165972 -0.0220751 -0.0712612 0.0183166 -0.0345531 -0.0840601 0.0197666 -0.0506559 
-0.0965355 0.0210214 -0.0685486 -0.108115 0.0217353 -0.0913975 -0.118396 0.0221185 -0.116069 
-0.124673 0.0214825 -0.146359 -0.128579 0.0203167 -0.177687 -0.124293 0.0173209 -0.212601 
-0.11728 0.0135838 -0.246642 -0.0996359 0.00695525 -0.277275 -0.0803162 -0.000451145 -0.304907 
-0.0535488 -0.0113149 -0.319201 -0.0269781 -0.0226128 -0.330047 -0.00141502 -0.0361361 -0.323231 
0.0227094 -0.0494695 -0.314385 0.0382024 -0.0616635 -0.293358 0.0522159 -0.0731753 -0.271813 
0.0556268 -0.0797979 -0.246546 0.0581231 -0.0856707 -0.221438 0.0525703 -0.084944 -0.197724 
0.0466331 -0.0837317 -0.174293 0.0363725 -0.0770562 -0.154036 0.0260315 -0.0702023 -0.134009 
0.0144585 -0.0606115 -0.117498 0.00292081 -0.0510136 -0.101131 -0.00778425 -0.0412499 -0.0881594 
-0.0183716 -0.0315151 -0.075252 -0.0233089 -0.0231664 -0.0654162 -0.0282464 -0.0148176 -0.0555803 
-0.0148488 0.0104188 0.00862032 -0.0238436 0.0128443 0.00301909 -0.0340181 0.0154944 -0.00412716 
-0.0447112 0.0182299 -0.0123021 -0.0565802 0.021159 -0.0228087 -0.0687345 0.0241391 -0.0346833 
-0.0816023 0.0272468 -0.049978 -0.0942073 0.0303308 -0.0669508 -0.106084 0.0333493 -0.0885705 
-0.116781 0.0361768 -0.111885 -0.123835 0.0384154 -0.140427 -0.128696 0.0401521 -0.16993 
-0.125978 0.040155 -0.202754 -0.120696 0.0392549 -0.234798 -0.105416 0.034833 -0.263799 
-0.0884568 0.0293022 -0.290102 -0.0640329 0.0188425 -0.304415 -0.039564 0.00761485 -0.315597 
-0.0148639 -0.00754952 -0.31073 0.00873852 -0.0226783 -0.303936 0.0257547 -0.0375934 -0.28558 
0.0415108 -0.0517848 -0.266625 0.0482369 -0.0607896 -0.243374 0.0540664 -0.0689435 -0.22017 
0.0520064 -0.0696096 -0.197366 0.0494671 -0.0697383 -0.174782 0.0415353 -0.0638234 -0.154656 
0.0334308 -0.057726 -0.134742 0.0226788 -0.0488329 -0.118071 0.0119173 -0.0399389 -0.101544 
0.000932081 -0.0310257 -0.0884121 -0.00993654 -0.022143 -0.0753459 -0.0152115 -0.0147267 -0.0654295 
-0.0204865 -0.00731026 -0.055513 -0.0122825 0.0120295 0.00634752 -0.0210385 0.0149253 0.00101856 
-0.0309716 0.0182376 -0.00575208 -0.0414238 0.021757 -0.0134775 -0.0530528 0.0257457 -0.0233672 
-0.0649821 0.0299319 -0.0345153 -0.0776623 0.0346116 -0.0488096 -0.0901379 0.039421 -0.0646287 
-0.102047 0.0445896 -0.0846705 -0.112918 0.0496839 -0.10623 -0.120589 0.0545487 -0.13247 
-0.126309 0.0589193 -0.159562 -0.12529 0.0615826 -0.189598 -0.121956 0.0631769 -0.218982 
-0.109591 0.0606026 -0.245824 -0.0955931 0.0566028 -0.270391 -0.0743334 0.0462681 -0.284846 
-0.0527619 0.0348512 -0.296609 -0.0295919 0.0178877 -0.294575 -0.00710966 0.000826503 -0.290755 
0.0112463 -0.0168206 -0.276222 0.0286126 -0.0336718 -0.260972 0.0388865 -0.0448188 -0.240575 
0.0482913 -0.0549876 -0.220057 0.0500474 -0.0565473 -0.198478 0.0512175 -0.0575138 -0.177022 
0.045796 -0.0518071 -0.156962 0.0401005 -0.0459239 -0.137087 0.0302041 -0.037334 -0.120047 
0.0202512 -0.028758 -0.103152 0.00897083 -0.0205095 -0.0896591 -0.00219394 -0.0122964 -0.0762343 
-0.00781376 -0.00577512 -0.0660926 -0.0134336 0.000746167 -0.055951 -0.00922205 0.0136021 0.00397666 
-0.0175975 0.0169179 -0.00106694 -0.027114 0.0208123 -0.00743574 -0.0371347 0.0250141 -0.0146749 
-0.0482984 0.0299122 -0.0238871 -0.0597693 0.0351243 -0.0342336 -0.072008 0.0411209 -0.0474158 
-0.0841098 0.0473631 -0.0619547 -0.0958326 0.0542855 -0.0802502 -0.1067 0.0612144 -0.0998819 
-0.114931 0.0681636 -0.123634 -0.121525 0.0746146 -0.148152 -0.122466 0.0793446 -0.17532 
-0.121422 0.0828738 -0.202022 -0.112632 0.0817196 -0.22691 -0.1023 0.0788871 -0.25002 
-0.0851103 0.0685957 -0.265227 -0.0673038 0.0569494 -0.278243 -0.0463363 0.038359 -0.28003 
-0.0255396 0.019556 -0.28018 -0.00576697 -0.000522683 -0.270507 0.0133667 -0.0196918 -0.259928 
0.0279212 -0.0323429 -0.242851 0.0416256 -0.0438535 -0.225405 0.0478491 -0.0453282 -0.204705 
0.0533327 -0.0461677 -0.184003 0.0504938 -0.0398622 -0.163266 0.0472554 -0.0334151 -0.142692 
0.0378918 -0.0247975 -0.12462 0.0284245 -0.0162229 -0.106701 0.0165217 -0.00866106 -0.092416 
0.00473749 -0.00114193 -0.0782058 -0.00135246 0.00432689 -0.0676 -0.00744245 0.00979574 -0.0569941 
-0.00582075 0.0151483 0.00153818 -0.0137181 0.0188495 -0.00321104 -0.0226971 0.0232709 -0.00915989 
-0.0321548 0.0280849 -0.0158875 -0.0426979 0.033789 -0.0243804 -0.0535493 0.0399026 -0.0338734 
-0.0651712 0.0470402 -0.0458667 -0.0767307 0.0545134 -0.0590379 -0.0881172 0.0629161 -0.0754711 
-0.0988583 0.0713818 -0.0930558 -0.10761 0.0800416 -0.114191 -0.115088 0.0881914 -0.136024 
-0.118169 0.0945787 -0.160267 -0.11965 0.0996567 -0.184272 -0.114891 0.0996279 -0.207348 
-0.108711 0.0977119 -0.229194 -0.0962159 0.0874074 -0.245574 -0.0827726 0.0755039 -0.260307 
-0.0644714 0.0554055 -0.266596 -0.0457501 0.0349922 -0.271402 -0.0245077 0.0126891 -0.267304 
-0.00349825 -0.00856239 -0.262062 0.0158422 -0.0222771 -0.248628 0.0343459 -0.0346653 -0.234518 
0.0454858 -0.03538 -0.214461 0.0556993 -0.0354273 -0.194252 0.0554929 -0.0279664 -0.172327 
0.0547449 -0.0204189 -0.150547 0.0456915 -0.0115454 -0.130983 0.0364872 -0.00275399 -0.111589 
0.023736 0.00410629 -0.0962143 0.0111095 0.0109144 -0.0809243 0.004463 0.0152223 -0.0696894 
-0.00218355 0.0195302 -0.0584546 -0.00205927 0.0165192 -0.00100804 -0.0093871 0.0205406 -0.00547031 
-0.0177184 0.0253945 -0.0110096 -0.0264959 0.0307086 -0.0172393 -0.036285 0.0370657 -0.0250342 
-0.0463816 0.0439089 -0.0337039 -0.0572466 0.0519675 -0.0445605 -0.0681302 0.0604392 -0.0564371 
-0.0790652 0.0700544 -0.0711382 -0.0895814 0.0797986 -0.0868446 -0.0988069 0.0899406 -0.105651 
-0.107152 0.0996127 -0.125137 -0.112456 0.107661 -0.146973 -0.116593 0.11439 -0.168839 
-0.116182 0.115971 -0.190822 -0.114529 0.115555 -0.212145 -0.107358 0.106263 -0.230539 
-0.0989062 0.0951502 -0.24786 -0.0838857 0.0747101 -0.259679 -0.0677408 0.0537966 -0.270164 
-0.044849 0.0300417 -0.272638 -0.0216839 0.00744146 -0.273608 0.00344043 -0.0068844 -0.263798 
0.0277047 -0.0197215 -0.252872 0.0444003 -0.0194575 -0.232128 0.0599017 -0.0185407 -0.211063 
0.06197 -0.0102802 -0.186397 0.0633305 -0.00201429 -0.161891 0.0538378 0.00633477 -0.139842 
0.0441573 0.0145631 -0.118002 0.0300643 0.0199537 -0.101075 0.016109 0.0252874 -0.0842475 
0.00876447 0.0278885 -0.0722016 0.00141987 0.0304896 -0.0601557 0.00197235 0.0177586 -0.00363508 
-0.0047174 0.0220513 -0.00781597 -0.0123184 0.0272669 -0.0129534 -0.0203278 0.0329968 -0.0186956 
-0.0292629 0.0398923 -0.0258084 -0.0385031 0.0473361 -0.0336774 -0.0485061 0.0561509 -0.0434366 
-0.0586137 0.0654465 -0.0540734 -0.0690106 0.0760735 -0.06714 -0.0792282 0.0869026 -0.0810945 
-0.0888931 0.0983553 -0.0977872 -0.0980918 0.109417 -0.115181 -0.10568 0.11913 -0.134997 
-0.112572 0.127586 -0.155142 -0.116746 0.131141 -0.176571 -0.119901 0.132663 -0.197929 
-0.118528 0.125151 -0.218968 -0.115538 0.115615 -0.23953 -0.104259 0.0957083 -0.25765 
-0.0910665 0.0751271 -0.27458 -0.0663907 0.0505 -0.284375 -0.0408601 0.0271011 -0.292212 
-0.00920348 0.0125036 -0.286013 0.0215423 -0.000460833 -0.278158 0.0442732 0.000945953 -0.255727 
0.065481 0.00295575 -0.232795 0.0695555 0.0117487 -0.204223 0.0727381 0.0204466 -0.175853 
0.0622439 0.0276859 -0.150574 0.0515329 0.0347663 -0.125559 0.0357279 0.0381112 -0.106732 
0.0200792 0.0413978 -0.0880242 0.0119304 0.0418827 -0.0750308 0.00378167 0.0423677 -0.0620373 
0.00622748 0.01875 -0.00634638 0.000228669 0.0232498 -0.0102646 -0.00657687 0.0287409 -0.01503 
-0.0137457 0.0347898 -0.0203237 -0.0217381 0.0421031 -0.0268147 -0.0300228 0.0500225 -0.0339593 
-0.0390381 0.0594569 -0.0427376 -0.0482257 0.0694529 -0.0522759 -0.0578902 0.0810038 -0.0639188 
-0.0675853 0.0928799 -0.0763635 -0.0773747 0.105758 -0.0912799 -0.0870831 0.118435 -0.10694 
-0.0965111 0.130413 -0.125171 -0.105727 0.141378 -0.144027 -0.114117 0.148387 -0.165319 
-0.121813 0.153545 -0.187125 -0.126423 0.150478 -0.21121 -0.129192 0.145323 -0.235481 
-0.122524 0.129464 -0.260707 -0.113117 0.112636 -0.284954 -0.0872733 0.0899922 -0.303327 
-0.0599002 0.0683533 -0.319133 -0.0215633 0.0539165 -0.316542 0.0157793 0.0409932 -0.311567 
0.044372 0.0413878 -0.285607 0.0710538 0.0422488 -0.258979 0.0762384 0.0483575 -0.224835 
0.0803592 0.0543027 -0.190994 0.0681656 0.0577427 -0.161811 0.0557516 0.0610274 -0.132967 
0.0381559 0.0606608 -0.112117 0.0207387 0.0602508 -0.0914084 0.0118834 0.0577567 -0.0775063 
0.00302805 0.0552626 -0.0636042 0.0106647 0.0195392 -0.00912634 0.00539991 0.0241939 -0.012797 
-0.000557136 0.0298901 -0.0172147 -0.0068265 0.0361792 -0.0220918 -0.0138038 0.0438123 -0.0280102 
-0.021052 0.0521053 -0.0344926 -0.0289773 0.062048 -0.0423847 -0.0371277 0.0726436 -0.0509398 
-0.0459014 0.0850471 -0.0613309 -0.0548915 0.097939 -0.0724626 -0.064549 0.112337 -0.0858777 
-0.0744866 0.126811 -0.100097 -0.0853917 0.141545 -0.117097 -0.0965823 0.155654 -0.135015 
-0.108886 0.167324 -0.156511 -0.120904 0.177502 -0.179102 -0.131649 0.181052 -0.20656 
-0.14042 0.182561 -0.234921 -0.13907 0.173615 -0.26791 -0.134127 0.163327 -0.300183 
-0.107619 0.144993 -0.328157 -0.0788296 0.127199 -0.35283 -0.0336917 0.113276 -0.353846 
0.0103416 0.100531 -0.351596 0.044655 0.0981571 -0.320604 0.0766214 0.0960429 -0.288789 
0.082186 0.096846 -0.247716 0.0865246 0.0974438 -0.207098 0.0720631 0.094893 -0.173458 
0.0573979 0.0922245 -0.140254 0.0379475 0.0867891 -0.11728 0.0187006 0.0813386 -0.0944729 
0.00921828 0.0751623 -0.0796938 -0.000264054 0.0689861 -0.0649146 0.0152022 0.020046 -0.0119397 
0.0106976 0.0247947 -0.0153823 0.00562675 0.0306176 -0.0194838 0.000306144 0.0370608 -0.0239845 
-0.00558068 0.0449102 -0.02939 -0.0116923 0.0534713 -0.0352815 -0.0183659 0.0638114 -0.0423879 
-0.0252676 0.0749083 -0.050072 -0.032801 0.0881006 -0.059356 -0.0406491 0.101988 -0.0693205 
-0.049468 0.118019 -0.0813833 -0.0588089 0.134503 -0.0942799 -0.0699529 0.152553 -0.110057 
-0.081787 0.170566 -0.126957 -0.0963128 0.188435 -0.148238 -0.111019 0.205502 -0.17107 
-0.126525 0.219 -0.200797 -0.140211 0.230863 -0.232073 -0.144568 0.234343 -0.271296 
-0.14482 0.236106 -0.310142 -0.120449 0.227568 -0.346722 -0.0931793 0.218509 -0.379354 
-0.0451387 0.205712 -0.383694 0.00178692 0.193192 -0.383934 0.0389004 0.183097 -0.348107 
0.0734001 0.17299 -0.311363 0.0784977 0.162734 -0.264314 0.0823078 0.152361 -0.217878 
0.0663759 0.14017 -0.180855 0.0502778 0.127978 -0.144348 0.0302733 0.11576 -0.119982 
0.0104841 0.103576 -0.0958028 0.00101653 0.0930622 -0.080554 -0.00845105 0.0825479 -0.0653052 
0.0198283 0.0203029 -0.0147827 0.016107 0.0250918 -0.0180144 0.0119558 0.0309721 -0.0218275 
0.00762757 0.0374933 -0.0259873 0.00289791 0.0454674 -0.0309327 -0.00198865 0.0542031 -0.0362965 
-0.00726742 0.0648426 -0.0427061 -0.0127333 0.0763538 -0.0496185 -0.0187171 0.0902786 -0.0579234 
-0.0250368 0.105143 -0.0668497 -0.032392 0.122906 -0.0776921 -0.0404055 0.141589 -0.0893692 
-0.050693 0.163451 -0.10393 -0.0619934 0.186042 -0.119743 -0.0772439 0.211471 -0.14044 
-0.0931928 0.237077 -0.163031 -0.112245 0.263474 -0.194048 -0.129886 0.288954 -0.227202 
-0.140291 0.309736 -0.271306 -0.146387 0.328423 -0.315439 -0.126631 0.334535 -0.359745 
-0.103478 0.338536 -0.399534 -0.0559829 0.32741 -0.406946 -0.00952514 0.315154 -0.40947 
0.0278048 0.292958 -0.368979 0.0624042 0.270418 -0.327534 0.0662853 0.244015 -0.275353 
0.0689066 0.217694 -0.22395 0.05221 0.192636 -0.184491 0.0354027 0.167763 -0.145617 
0.0159949 0.147245 -0.120508 -0.00319798 0.126831 -0.0955983 -0.0120831 0.111399 -0.0802402 
-0.0209682 0.0959669 -0.0648821 0.0244382 0.0202658 -0.0175942 0.0215024 0.0250339 -0.0206296 
0.0182819 0.030892 -0.0241784 0.0149693 0.0374005 -0.0280269 0.0114478 0.0453832 -0.0325547 
0.00786689 0.054164 -0.0374382 0.00413752 0.0649398 -0.0432109 0.000325836 0.0766865 -0.0494105 
-0.00371377 0.0911221 -0.0567922 -0.00798848 0.106726 -0.0647149 -0.0129881 0.125934 -0.0743058 
-0.0185823 0.146525 -0.0846625 -0.0262305 0.171893 -0.097665 -0.0349642 0.1988 -0.111884 
-0.0479313 0.23171 -0.130849 -0.061997 0.265955 -0.151748 -0.0809455 0.306136 -0.181244 
-0.0992798 0.346432 -0.213063 -0.114467 0.387323 -0.256782 -0.126076 0.425843 -0.300812 
-0.116217 0.450137 -0.346702 -0.103028 0.470301 -0.388109 -0.0659793 0.460879 -0.397379 
-0.029521 0.448562 -0.40162 0.00174293 0.410778 -0.361604 0.0307067 0.372371 -0.32063 
0.0337953 0.326975 -0.268883 0.035824 0.281976 -0.217938 0.0215999 0.243078 -0.179296 
0.00730297 0.204593 -0.141238 -0.00870287 0.175812 -0.116914 -0.0245288 0.14721 -0.092785 
-0.0317234 0.127176 -0.0779924 -0.038918 0.107142 -0.0631997 0.0290327 0.0199462 -0.0203755 
0.0268844 0.0246352 -0.0232285 0.0246051 0.0303948 -0.0265362 0.0223305 0.0368035 -0.030102 
0.0200661 0.0446834 -0.0342528 0.0178682 0.0533849 -0.0387015 0.0158367 0.0641403 -0.0438949 
0.0138888 0.0759512 -0.0494382 0.0121723 0.0906845 -0.0559503 0.0104385 0.1068 -0.0629026 
0.00865069 0.127179 -0.0712121 0.00652403 0.149398 -0.0801516 0.00322664 0.177976 -0.0912668 
-0.000988781 0.208949 -0.103406 -0.00878456 0.249265 -0.119537 -0.017966 0.292244 -0.137349 
-0.033306 0.347059 -0.162627 -0.0492033 0.403323 -0.190028 -0.0679574 0.467017 -0.228308 
-0.0847621 0.528163 -0.267058 -0.0898703 0.574028 -0.308636 -0.0922595 0.613335 -0.346342 
-0.0751619 0.605648 -0.356305 -0.0578532 0.592958 -0.36172 -0.0386868 0.536238 -0.327111 
-0.0208644 0.478669 -0.291573 -0.0181613 0.411546 -0.245605 -0.0161529 0.345247 -0.200326 
-0.0247968 0.291577 -0.165624 -0.0334925 0.238586 -0.131437 -0.0434033 0.201577 -0.109365 
-0.0532025 0.164827 -0.0874672 -0.0576429 0.140495 -0.0738878 -0.0620832 0.116163 -0.0603084 
0.0334951 0.0193442 -0.0230586 0.0321079 0.0238931 -0.0257393 0.0307432 0.0294726 -0.0288225 
0.0294847 0.0356833 -0.0321256 0.0284667 0.0433247 -0.0359271 0.0276579 0.0517832 -0.0399707 
0.027372 0.0622846 -0.0446194 0.0273772 0.073876 -0.049537 0.0281884 0.0884859 -0.0551991 
0.0292892 0.104602 -0.0611802 0.0312835 0.125361 -0.068145 0.033368 0.14826 -0.0755441 
0.0357638 0.178552 -0.0844439 0.0376878 0.211846 -0.0940315 0.037771 0.256852 -0.106302 
0.0364257 0.305546 -0.119706 0.028731 0.37064 -0.13815 0.0190046 0.438349 -0.158097 
-0.00113396 0.519463 -0.185747 -0.0220133 0.598032 -0.213907 -0.047337 0.661332 -0.245126 
-0.0711749 0.716082 -0.27374 -0.0843634 0.70955 -0.283682 -0.096042 0.69636 -0.290177 
-0.0944332 0.624589 -0.26633 -0.0926333 0.551889 -0.241581 -0.088684 0.468744 -0.206688 
-0.0849496 0.386775 -0.172226 -0.0845096 0.322835 -0.144364 -0.0841439 0.259771 -0.116883 
-0.0855225 0.217293 -0.0983556 -0.0868899 0.17513 -0.0799651 -0.0877147 0.148044 -0.0681485 
-0.0885395 0.120958 -0.0563318 0.0378201 0.0184478 -0.0256395 0.0371664 0.0227935 -0.0281582 
0.0366885 0.0281077 -0.0310343 0.0364234 0.034018 -0.0340956 0.0366407 0.0412795 -0.0375768 
0.0372272 0.0493247 -0.0412462 0.0387367 0.0593286 -0.0453861 0.0407881 0.0704054 -0.0497098 
0.0443397 0.0844529 -0.0545424 0.0485816 0.100036 -0.0595516 0.0549518 0.120352 -0.0651053 
0.0620219 0.142943 -0.0708361 0.0715095 0.17339 -0.0771786 0.0812614 0.207188 -0.0837244 
0.0920441 0.254054 -0.0910628 0.10161 0.305321 -0.0986852 0.105765 0.376156 -0.10757 
0.1061 0.450597 -0.1169 0.08685 0.543525 -0.128514 0.0630638 0.634096 -0.140549 
0.0120578 0.710524 -0.155113 -0.0393442 0.776862 -0.169017 -0.0935846 0.77088 -0.178196 
-0.144498 0.757061 -0.185672 -0.166135 0.674283 -0.178167 -0.185442 0.590651 -0.16978 
-0.178546 0.497428 -0.151482 -0.171267 0.405656 -0.133202 -0.158093 0.336136 -0.115202 
-0.145062 0.267614 -0.0973798 -0.13537 0.222541 -0.0837413 -0.1258 0.177813 -0.0701878 
-0.122112 0.149582 -0.0607063 -0.118424 0.121351 -0.0512248 0.0419063 0.0173099 -0.0280605 
0.0419292 0.0214006 -0.0304258 0.0422666 0.0263776 -0.0331087 0.0429152 0.0318981 -0.0359451 
0.044269 0.0386503 -0.0391292 0.0461428 0.0461196 -0.0424505 0.0493163 0.0553819 -0.0461147 
0.053272 0.0656376 -0.0498797 0.059394 0.0786439 -0.053924 0.0665971 0.093094 -0.0580026 
0.0771339 0.111996 -0.062187 0.088981 0.133073 -0.0662874 0.105355 0.161662 -0.0700975 
0.122776 0.193512 -0.0736145 0.144285 0.238083 -0.0759887 0.164931 0.28705 -0.077765 
0.181741 0.355558 -0.0768839 0.193033 0.427874 -0.0753231 0.176048 0.519713 -0.070278 
0.150497 0.609493 -0.0655497 0.0735515 0.686921 -0.0627222 -0.00581535 0.754277 -0.0613132 
-0.102532 0.749456 -0.0700701 -0.193934 0.736813 -0.0788873 -0.238572 0.65534 -0.0882354 
-0.278683 0.573088 -0.0966898 -0.267858 0.482085 -0.0950902 -0.2561 0.392523 -0.0930958 
-0.230038 0.325086 -0.0850462 -0.204202 0.258619 -0.0769726 -0.183693 0.214979 -0.0683325 
-0.163438 0.171671 -0.0597248 -0.155382 0.144318 -0.0526674 -0.147327 0.116966 -0.0456099 
0.0457227 0.0158991 -0.0303006 0.046358 0.0196759 -0.0325224 0.0474299 0.0242347 -0.035028 
0.0489018 0.0292642 -0.0376584 0.0512807 0.0353606 -0.0405716 0.0543195 0.0420708 -0.0435743 
0.0590083 0.0503154 -0.0468002 0.0647083 0.0594035 -0.0500464 0.0732083 0.0708273 -0.0533488 
0.0831694 0.0834672 -0.0565435 0.0976359 0.0998565 -0.0594059 0.114024 0.118056 -0.0619188 
0.137051 0.14251 -0.0632244 0.161964 0.169643 -0.0637275 0.19423 0.207223 -0.0611009 
0.226148 0.24838 -0.0569586 0.25652 0.305439 -0.0460791 0.279784 0.365617 -0.0333174 
0.266619 0.441781 -0.0109083 0.240595 0.516309 0.0113064 0.137418 0.581026 0.0323558 
0.0296332 0.637454 0.0497598 -0.111169 0.634484 0.0410382 -0.244478 0.625056 0.030474 
-0.311843 0.558807 0.00369479 -0.372413 0.491853 -0.0221406 -0.356547 0.416971 -0.0373585 
-0.339256 0.343202 -0.0517673 -0.300129 0.286508 -0.0537682 -0.261332 0.230591 -0.0555438 
-0.230293 0.192934 -0.0520256 -0.199638 0.155553 -0.0484867 -0.187379 0.131367 -0.0439538 
-0.17512 0.107181 -0.0394209 0.0492262 0.0143182 -0.0323242 0.0503937 0.0177511 -0.0344139 
0.0520922 0.0218488 -0.0367585 0.0542592 0.0263321 -0.0392023 0.0574883 0.0316892 -0.0418712 
0.0614845 0.037534 -0.0445865 0.0673983 0.0445975 -0.047418 0.0744943 0.0523132 -0.0501991 
0.0848638 0.0618348 -0.0528402 0.0969674 0.0722679 -0.0552531 0.114418 0.0855116 -0.0569622 
0.134207 0.100058 -0.0581077 0.162073 0.119104 -0.0573063 0.192358 0.139978 -0.0553157 
0.232072 0.167983 -0.0486868 0.271703 0.198282 -0.0398887 0.31097 0.238779 -0.0214493 
0.341993 0.281123 -0.000323602 0.330764 0.332932 0.0345703 0.303813 0.383544 0.0693134 
0.182519 0.426969 0.103153 0.0551416 0.465066 0.131828 -0.115842 0.464977 0.123488 
-0.277942 0.46059 0.112061 -0.361859 0.418388 0.0734716 -0.437459 0.375464 0.0358051 
-0.419503 0.324418 0.00852461 -0.399739 0.273964 -0.0176796 -0.352248 0.232575 -0.027379 
-0.305128 0.191682 -0.0367099 -0.266718 0.162452 -0.0373795 -0.22878 0.133416 -0.0379877 
-0.213443 0.113688 -0.0356445 -0.198107 0.0939608 -0.0333013 0.0523457 0.0125285 -0.0340823 
0.0539472 0.0155805 -0.0360538 0.0561398 0.0191646 -0.0382574 0.0588444 0.0230338 -0.0405385 
0.0627092 0.0275494 -0.0429953 0.0674078 0.0323983 -0.0454619 0.0741904 0.0380804 -0.0479529 
0.0822551 0.0441723 -0.0503345 0.0938701 0.0513991 -0.0524132 0.107361 0.0591387 -0.0541698 
0.126634 0.06846 -0.0549326 0.148424 0.0783998 -0.0549808 0.178904 0.0904763 -0.0525604 
0.21196 0.103202 -0.0487143 0.25506 0.118459 -0.0393084 0.298037 0.134158 -0.0274046 
0.34047 0.151818 -0.00439791 0.374081 0.169339 0.0216101 0.362479 0.186142 0.0630008 
0.334041 0.202202 0.104187 0.204592 0.213806 0.144151 0.0684505 0.224485 0.178298 
-0.11565 0.228542 0.170765 -0.290444 0.231437 0.159562 -0.383335 0.22411 0.11606 
-0.467301 0.215933 0.0733739 -0.45088 0.198191 0.0398664 -0.432398 0.180281 0.00752168 
-0.382312 0.159795 -0.00698981 -0.332559 0.139419 -0.0210606 -0.290656 0.121614 -0.0247717 
-0.24926 0.103893 -0.0283956 -0.232227 0.0902083 -0.0278313 -0.215195 0.0765235 -0.027267 
0.0551351 0.0106611 -0.0355698 0.0570834 0.0133349 -0.0374402 0.0596482 0.0164062 -0.0395249 
0.0627428 0.0196587 -0.0416685 0.0670384 0.023322 -0.0439457 0.072194 0.0271593 -0.0462015 
0.0794997 0.0314316 -0.0484037 0.088119 0.0358681 -0.0504499 0.100376 0.0407589 -0.0520639 
0.114528 0.04577 -0.0532889 0.134524 0.051152 -0.0533146 0.157001 0.0565033 -0.0525367 
0.188044 0.0617485 -0.0489824 0.221495 0.0665749 -0.0439034 0.26434 0.0697677 -0.0328785 
0.306757 0.0718178 -0.0193036 0.347272 0.068789 0.00560486 0.378882 0.0640574 0.0334289 
0.364852 0.0505991 0.0761959 0.33446 0.0369318 0.118647 0.205887 0.0220101 0.159202 
0.0707838 0.00981299 0.194045 -0.111122 0.0171424 0.187951 -0.284186 0.0259389 0.178124 
-0.379449 0.0476464 0.135458 -0.465978 0.0684958 0.0934157 -0.45426 0.0796929 0.0583978 
-0.440334 0.0901185 0.0244909 -0.392543 0.0887147 0.00762377 -0.344986 0.0870876 -0.0087862 
-0.302942 0.080212 -0.0144513 -0.261399 0.0733203 -0.0200163 -0.243902 0.0656566 -0.0207842 
-0.226406 0.0579927 -0.0215522 0.0574842 0.00868987 -0.0366966 0.0596634 0.0109891 -0.0384885 
0.0624376 0.0135488 -0.0404839 0.0657257 0.0161811 -0.0425237 0.0701784 0.0189777 -0.0446643 
0.075464 0.0217825 -0.0467598 0.0828317 0.0246073 -0.0487426 0.0914534 0.027346 -0.0505388 
0.103547 0.0298463 -0.0518179 0.117394 0.0320821 -0.0526779 0.136645 0.0335021 -0.0522456 
0.158056 0.0342888 -0.0510031 0.186928 0.0328874 -0.0469617 0.217608 0.0301473 -0.0414799 
0.255343 0.022186 -0.0303799 0.291991 0.0118567 -0.0170472 0.32381 -0.00899753 0.00620926 
0.347299 -0.0325519 0.031761 0.328105 -0.0699455 0.069077 0.295131 -0.106909 0.105887 
0.179479 -0.141294 0.139658 0.0584827 -0.170312 0.168828 -0.100812 -0.160874 0.165013 
-0.252916 -0.148017 0.1581 -0.341747 -0.105063 0.123934 -0.423099 -0.0628151 0.0900877 
-0.420312 -0.0284983 0.0598483 -0.415309 0.00465128 0.0304837 -0.376331 0.0198998 0.0145364 
-0.337405 0.0346644 -0.00101188 -0.299693 0.0380578 -0.00718068 -0.262417 0.0413478 -0.0132543 
-0.246099 0.0396759 -0.0147588 -0.229781 0.038004 -0.0162634 0.0595562 0.00674341 -0.0374954 
0.0618903 0.00870831 -0.0392341 0.0647622 0.010805 -0.041171 0.0681091 0.012869 -0.0431404 
0.0725323 0.0148592 -0.0451831 0.0777309 0.0167001 -0.0471609 0.084868 0.018168 -0.0489763 
0.0931572 0.0193243 -0.0505826 0.104637 0.0196176 -0.0516098 0.117669 0.0193223 -0.0522049 
0.135486 0.0172121 -0.0514677 0.155077 0.0140029 -0.0499464 0.180794 0.00699727 -0.0457168 
0.207698 -0.00198054 -0.0401824 0.239228 -0.0186501 -0.029559 0.269144 -0.0383943 -0.0170715 
0.291891 -0.0718042 0.00370182 0.307158 -0.108286 0.0261702 0.284085 -0.160512 0.0573265 
0.249923 -0.211723 0.0878792 0.149219 -0.256846 0.114811 0.0443578 -0.295195 0.138236 
-0.0902925 -0.285003 0.136526 -0.219377 -0.270281 0.132379 -0.299489 -0.215712 0.106791 
-0.373469 -0.161595 0.0812839 -0.378468 -0.112568 0.056694 -0.38135 -0.0648731 0.0327445 
-0.351775 -0.0375914 0.0186167 -0.322093 -0.0109515 0.00481638 -0.289868 0.000600139 -0.00128554 
-0.258004 0.0119861 -0.00730268 -0.243438 0.0154205 -0.00925224 -0.228871 0.0188548 -0.0112018 
0.0612262 0.00483279 -0.0378186 0.0636052 0.00652179 -0.0395405 0.0664128 0.00822569 -0.0414639 
0.0696232 0.00979701 -0.0434111 0.0737463 0.0110678 -0.0454122 0.0785433 0.0120448 -0.047334 
0.0850253 0.0122873 -0.0490575 0.0924965 0.0120283 -0.0505612 0.102707 0.0103807 -0.0514565 
0.114185 0.00790845 -0.0519317 0.129569 0.0028938 -0.0511119 0.146246 -0.00348656 -0.0495816 
0.167385 -0.0145849 -0.0455967 0.189054 -0.0278736 -0.0405176 0.212791 -0.049705 -0.0311709 