# vtk DataFile Version 2.0
vtk output
ASCII
DATASET RECTILINEAR_GRID
DIMENSIONS 34 34 34
X_COORDINATES 34 float
-10 -9.79798 -9.59596 -9.39394 -9.19192 -8.9899 -8.78788 -8.58586 -8.38384 
-8.18182 -7.9798 -7.77778 -7.57576 -7.37374 -7.17172 -6.9697 -6.76768 -6.56566 
-6.36364 -6.16162 -5.9596 -5.75758 -5.55556 -5.35354 -5.15152 -4.9495 -4.74747 
-4.54545 -4.34343 -4.14141 -3.93939 -3.73737 -3.53535 -3.33333 
Y_COORDINATES 34 float
-3.33333 -3.13131 -2.92929 -2.72727 -2.52525 -2.32323 -2.12121 -1.91919 -1.71717 
-1.51515 -1.31313 -1.11111 -0.909091 -0.707071 -0.505051 -0.30303 -0.10101 0.10101 
0.30303 0.50505 0.70707 0.909091 1.11111 1.31313 1.51515 1.71717 1.91919 
2.12121 2.32323 2.52525 2.72727 2.92929 3.13131 3.33333 
Z_COORDINATES 34 float
-10 -9.79798 -9.59596 -9.39394 -9.19192 -8.9899 -8.78788 -8.58586 -8.38384 
-8.18182 -7.9798 -7.77778 -7.57576 -7.37374 -7.17172 -6.9697 -6.76768 -6.56566 
-6.36364 -6.16162 -5.9596 -5.75758 -5.55556 -5.35354 -5.15152 -4.9495 -4.74747 
-4.54545 -4.34343 -4.14141 -3.93939 -3.73737 -3.53535 -3.33333 
POINT_DATA 39304
VECTORS grad float
0.0497266 0.0411885 0.0939858 0.0486916 0.0421748 0.0962825 0.0476566 0.0431611 0.0985793 
0.0456611 0.0438737 0.100097 0.0436456 0.0445807 0.101598 0.0418616 0.0450947 0.102311 
0.0400875 0.0456006 0.102991 0.0387515 0.0460754 0.102993 0.037444 0.0465482 0.102951 
0.0366733 0.0472077 0.102426 0.0359502 0.0478839 0.101858 0.0357215 0.0489783 0.101032 
0.035549 0.0501201 0.100176 0.0356844 0.0518709 0.0992637 0.0358628 0.0537065 0.098344 
0.0360458 0.0562428 0.0975154 0.0362296 0.0588959 0.0967019 0.036055 0.0621904 0.0960502 
0.0358106 0.06561 0.0954299 0.0348694 0.0694332 0.0949599 0.0337715 0.0733473 0.0945237 
0.0317605 0.0772676 0.0941537 0.0295155 0.0811896 0.0938007 0.026343 0.0846456 0.0933863 
0.022902 0.0879668 0.0929541 0.0187417 0.0904127 0.0923345 0.0143481 0.0925748 0.0916542 
0.00960399 0.0936513 0.0907074 0.00473333 0.0943358 0.0896645 -8.20057e-05 0.0939844 0.0883457 
-0.00487522 0.0932186 0.0869167 -0.00929481 0.0916781 0.085261 -0.0135496 0.0897958 0.0835053 
-0.0172667 0.0874914 0.0815987 0.0507064 0.0387294 0.0987682 0.0496009 0.0396028 0.101251 
0.0484953 0.0404761 0.103734 0.0463803 0.0410595 0.105333 0.0442441 0.0416368 0.106913 
0.0424008 0.0420175 0.107602 0.0405699 0.0423899 0.108253 0.039275 0.0427525 0.108148 
0.0380151 0.0431146 0.107994 0.0374095 0.043722 0.107319 0.0368622 0.0443513 0.106597 
0.0369217 0.0455027 0.105621 0.0370501 0.0467135 0.104616 0.0375644 0.0486831 0.103596 
0.0381324 0.0507586 0.102573 0.0387192 0.0537184 0.101703 0.0393091 0.0568256 0.10086 
0.0394698 0.0607625 0.100245 0.0395467 0.0648613 0.099674 0.0387677 0.0695104 0.0993043 
0.0377961 0.0742833 0.0989798 0.0356899 0.0791163 0.098735 0.0332927 0.0839648 0.0985108 
0.0297395 0.0882734 0.0981894 0.0258516 0.0924258 0.09784 0.0210777 0.0955092 0.0972228 
0.0160164 0.0982459 0.0965187 0.01055 0.0996409 0.0954471 0.00493742 0.100551 0.0942428 
-0.000556392 0.100188 0.0926739 -0.00600268 0.0993151 0.0909592 -0.0109324 0.0975097 0.0889663 
-0.0156343 0.0952929 0.0868507 -0.019634 0.0925928 0.0845769 0.051496 0.0355433 0.103589 
0.0503145 0.0362576 0.106265 0.049133 0.0369718 0.108942 0.0468916 0.0373793 0.110619 
0.0446282 0.0377804 0.112275 0.0427316 0.0379799 0.112927 0.0408506 0.0381707 0.113536 
0.0396261 0.038372 0.113308 0.0384444 0.038574 0.113025 0.0380663 0.0390825 0.112188 
0.0377596 0.0396183 0.111302 0.0382096 0.0407927 0.110181 0.0387455 0.0420397 0.109033 
0.0397808 0.044225 0.107934 0.0408857 0.0465412 0.106843 0.0420454 0.0499761 0.106 
0.0432143 0.0535975 0.105198 0.0438756 0.0583047 0.10473 0.044438 0.0632239 0.104327 
0.043937 0.0689096 0.104209 0.0431968 0.0747677 0.104154 0.0410128 0.0807828 0.104207 
0.0384585 0.0868382 0.104289 0.0344161 0.092269 0.10422 0.029943 0.097519 0.104107 
0.0243376 0.101435 0.103596 0.0183649 0.104917 0.102955 0.0119103 0.106698 0.101778 
0.00528162 0.107864 0.100407 -0.00112661 0.10743 0.0985242 -0.00744667 0.106356 0.096437 
-0.0130361 0.10415 0.09399 -0.0183031 0.101445 0.0913843 -0.0226346 0.0982009 0.0886112 
0.0521846 0.0319709 0.108429 0.0509242 0.0325016 0.111304 0.0496638 0.0330323 0.114178 
0.0472926 0.0332392 0.115932 0.0448983 0.0334394 0.117662 0.0429517 0.0334321 0.118271 
0.0410243 0.0334159 0.118832 0.0398856 0.0334297 0.118471 0.0387983 0.0334454 0.118051 
0.0386807 0.0338301 0.117046 0.0386493 0.0342475 0.115989 0.0395441 0.0354269 0.114725 
0.0405441 0.0366928 0.113437 0.042176 0.039092 0.112277 0.043896 0.0416494 0.111134 
0.0457185 0.0455868 0.110353 0.0475581 0.0497542 0.109633 0.0488081 0.0552999 0.109371 
0.049943 0.0611145 0.109198 0.0497816 0.0679486 0.109411 0.0493285 0.0750122 0.10971 
0.0470759 0.0823525 0.110153 0.0443619 0.0897639 0.110634 0.0397729 0.09646 0.110902 
0.0346411 0.102949 0.111109 0.0280884 0.1078 0.110758 0.0210748 0.11212 0.110226 
0.0134906 0.114323 0.108954 0.00570025 0.11576 0.107413 -0.00174774 0.115224 0.105183 
-0.00905881 0.113899 0.102677 -0.0153873 0.111221 0.0997141 -0.0212823 0.107946 0.0965491 
-0.0259716 0.104078 0.0932064 0.052588 0.0276447 0.113008 0.0512431 0.0279393 0.116073 
0.0498981 0.0282339 0.119138 0.0473889 0.0281858 0.120958 0.0448553 0.0281305 0.122752 
0.0428612 0.0278556 0.123304 0.04089 0.0275713 0.123803 0.0398621 0.0273256 0.1233 
0.0388958 0.0270825 0.122731 0.0391022 0.0272597 0.121557 0.0394128 0.0274743 0.12033 
0.0408707 0.0285727 0.118942 0.042459 0.0297715 0.117537 0.0448703 0.0323212 0.11637 
0.0473963 0.0350593 0.115236 0.0501202 0.0394965 0.114627 0.052877 0.0442169 0.114105 
0.0549719 0.0507021 0.114229 0.0569377 0.0575316 0.114478 0.0573181 0.0657449 0.115279 
0.0573418 0.0742696 0.116203 0.0550801 0.0832759 0.117346 0.0522324 0.0924058 0.118545 
0.0469519 0.100735 0.119446 0.0409672 0.108831 0.120261 0.0331358 0.114887 0.120263 
0.0247053 0.120282 0.120001 0.0155809 0.122984 0.118654 0.00620584 0.124716 0.116916 
-0.00263031 0.123972 0.114198 -0.0112509 0.122239 0.111089 -0.0185113 0.118889 0.107377 
-0.0251717 0.114826 0.1034 -0.0302476 0.110142 0.0992464 0.052826 0.0228808 0.117434 
0.0513931 0.0229088 0.120686 0.0499603 0.0229369 0.123938 0.0473082 0.0226021 0.125818 
0.0446306 0.0222597 0.12767 0.0425902 0.0216819 0.128158 0.0405768 0.021094 0.128587 
0.0396743 0.0205471 0.127934 0.0388443 0.0200029 0.127211 0.0394116 0.0199241 0.125868 
0.040103 0.0198867 0.124469 0.0421929 0.0208543 0.12297 0.0444416 0.0219361 0.12146 
0.0477383 0.0245993 0.120318 0.0511811 0.0274832 0.119229 0.0549449 0.0324187 0.118854 
0.0587621 0.0376961 0.118599 0.0618508 0.0451794 0.119213 0.0647973 0.0530932 0.119996 
0.0658369 0.0628196 0.121534 0.0664475 0.0729539 0.123241 0.0642112 0.0838241 0.125263 
0.0612451 0.094883 0.127365 0.0551892 0.105058 0.129072 0.0482388 0.114976 0.130663 
0.0389361 0.122394 0.131128 0.0288704 0.129 0.131228 0.0179674 0.132249 0.129821 
0.00676191 0.134286 0.127869 -0.00366467 0.133274 0.124582 -0.0137797 0.131042 0.12076 
-0.0220841 0.126904 0.116166 -0.0295896 0.121925 0.11123 -0.0350688 0.116315 0.106125 
0.0526804 0.0174575 0.121227 0.0511526 0.0171688 0.124638 0.0496248 0.0168801 0.128048 
0.0468153 0.0162028 0.129968 0.0439791 0.0155173 0.131856 0.041881 0.0145655 0.132267 
0.0398143 0.0136024 0.132615 0.0390421 0.0126552 0.13181 0.0383544 0.011709 0.130929 
0.0393271 0.0112376 0.129426 0.0404474 0.0108084 0.127867 0.0432847 0.0114753 0.126289 
0.0463172 0.0122667 0.124708 0.0507144 0.014869 0.123667 0.0553021 0.017724 0.122701 
0.0604263 0.0230355 0.122709 0.06564 0.0287564 0.122879 0.0701074 0.0372406 0.124245 
0.0744292 0.0462639 0.125844 0.0764729 0.0576901 0.128526 0.078004 0.069657 0.131451 
0.0759448 0.0827624 0.134886 0.0729649 0.0961597 0.138452 0.0659621 0.108635 0.141509 
0.0577948 0.120843 0.14442 0.0465333 0.129971 0.145708 0.0342683 0.1381 0.14647 
0.0209684 0.141989 0.145019 0.00729479 0.144347 0.142769 -0.00521858 0.14292 0.13861 
-0.0172679 0.139978 0.133687 -0.0268427 0.134816 0.127759 -0.0353258 0.128673 0.121386 
-0.0411814 0.121951 0.114907 0.0522919 0.0116168 0.124619 0.0506646 0.0109794 0.12817 
0.0490374 0.0103421 0.131722 0.0460614 0.00928696 0.133668 0.0430572 0.00822308 0.13558 
0.0408943 0.00685222 0.135906 0.0387673 0.00546831 0.136165 0.0381285 0.00405801 0.135204 
0.0375867 0.002646 0.134164 0.0389931 0.00169545 0.132507 0.0405727 0.000785914 0.130796 
0.0442308 0.00104452 0.129159 0.048125 0.00143586 0.12753 0.0537591 0.00386671 0.126636 
0.059636 0.00658214 0.125844 0.0663237 0.0121922 0.126328 0.0731467 0.0182847 0.127025 
0.0792366 0.0277714 0.129308 0.0851835 0.0379204 0.131902 0.0884498 0.0511646 0.135985 
0.0911129 0.0651053 0.140403 0.0893264 0.0806811 0.14559 0.0863991 0.0966762 0.150973 
0.078341 0.11174 0.155729 0.0687977 0.126534 0.160302 0.0552686 0.137594 0.16264 
0.0404469 0.147442 0.164254 0.0243586 0.15203 0.162771 0.00781298 0.154719 0.160169 
-0.00710153 0.152784 0.154947 -0.0213636 0.148999 0.148676 -0.0323523 0.142662 0.141128 
-0.041897 0.135199 0.133017 -0.0481118 0.127248 0.124895 0.0514404 0.00535844 0.127019 
0.049703 0.00433785 0.13066 0.0479655 0.00331727 0.134301 0.0447947 0.0018394 0.136241 
0.0415941 0.000352001 0.138145 0.039326 -0.00150939 0.138373 0.0370976 -0.00338669 0.138529 
0.0365511 -0.00538262 0.137414 0.0361144 -0.00738626 0.136216 0.0379443 -0.00901507 0.134417 
0.0399756 -0.0106105 0.132564 0.0445277 -0.0110465 0.130895 0.0493663 -0.0113506 0.129246 
0.0564547 -0.00943851 0.128565 0.0638571 -0.00721716 0.128018 0.0725056 -0.00164143 0.129132 
0.0813617 0.00449337 0.130524 0.0896177 0.0147725 0.134047 0.0977566 0.0258603 0.137986 
0.102797 0.040932 0.144048 0.107141 0.0569002 0.150589 0.105947 0.0752078 0.158388 
0.103333 0.0941153 0.16651 0.0940639 0.112192 0.173936 0.0828678 0.130028 0.18116 
0.0664073 0.143387 0.185219 0.0482395 0.155294 0.188251 0.0284919 0.160697 0.186731 
0.00817389 0.163751 0.183569 -0.00979327 0.161204 0.176669 -0.0268201 0.156417 0.168275 
-0.039443 0.148774 0.158287 -0.0501229 0.139871 0.147595 -0.0565683 0.130666 0.137148 
0.0502697 -0.00118784 0.128734 0.0484145 -0.00261561 0.13243 0.0465594 -0.00404337 0.136125 
0.0431744 -0.00597489 0.138037 0.0397576 -0.00791689 0.139911 0.0373564 -0.0103181 0.140031 
0.0349984 -0.0127389 0.140077 0.0345161 -0.015405 0.138808 0.0341561 -0.018087 0.137453 
0.0364024 -0.0205313 0.135519 0.0388803 -0.0229546 0.133533 0.0443771 -0.0242824 0.131849 
0.0502169 -0.0254858 0.1302 0.0589097 -0.024332 0.129776 0.0680005 -0.0228492 0.129523 
0.0788835 -0.0175374 0.131375 0.0900652 -0.0115875 0.133577 0.100862 -0.000660802 0.138561 
0.111584 0.0112369 0.144089 0.11878 0.0281428 0.152529 0.125183 0.0461756 0.161625 
0.124802 0.0673953 0.17263 0.122681 0.0894321 0.184125 0.112093 0.110815 0.194893 
0.0990532 0.132008 0.205451 0.0792035 0.14792 0.211691 0.0571452 0.162119 0.216532 
0.0331377 0.168416 0.214974 0.00842633 0.17186 0.211107 -0.0130428 0.16863 0.202106 
-0.033215 0.162729 0.191053 -0.0476239 0.15369 0.178058 -0.0594901 0.143266 0.164206 
-0.0660774 0.132788 0.150963 0.0486058 -0.00778398 0.129228 0.0466162 -0.00962221 0.13291 
0.0446267 -0.0114604 0.136591 0.0409779 -0.0138608 0.138433 0.0372946 -0.016273 0.140236 
0.0346735 -0.0192636 0.14023 0.0320977 -0.0222788 0.140147 0.0315587 -0.0257371 0.138716 
0.0311526 -0.0292242 0.137198 0.033696 -0.0327298 0.135117 0.0365016 -0.0362369 0.132986 
0.042905 -0.0388694 0.13127 0.0497173 -0.0414024 0.129601 0.0601689 -0.0415795 0.129432 
0.0711283 -0.0414279 0.129471 0.0846792 -0.0370171 0.132137 0.0986621 -0.0318964 0.135242 
0.112695 -0.0208683 0.14197 0.126738 -0.00868749 0.149405 0.136874 0.00971253 0.160882 
0.146132 0.0295119 0.173268 0.147113 0.0535303 0.188655 0.145973 0.0786305 0.204812 
0.134011 0.103389 0.220452 0.118916 0.128049 0.235943 0.0949208 0.14667 0.245504 
0.0680385 0.163331 0.253142 0.0387327 0.170675 0.2515 0.00855177 0.174655 0.246508 
-0.0171263 0.170933 0.234331 -0.0410033 0.164132 0.219282 -0.0573352 0.154011 0.202013 
-0.0703383 0.142427 0.183765 -0.0768284 0.131087 0.166831 0.046572 -0.0144175 0.128806 
0.0444355 -0.0166687 0.132422 0.0422991 -0.0189198 0.136038 0.0383493 -0.0218006 0.137778 
0.0343618 -0.0246945 0.139479 0.0314557 -0.0283116 0.139333 0.0285956 -0.0319594 0.139108 
0.0279095 -0.0363015 0.13751 0.0273652 -0.0406888 0.135823 0.0301163 -0.0454398 0.133588 
0.0331602 -0.0502231 0.131304 0.0404419 -0.0544696 0.129541 0.0482051 -0.0586552 0.127838 
0.0605314 -0.0605927 0.12792 0.0734944 -0.0622165 0.12825 0.0900383 -0.0591845 0.131791 
0.107179 -0.0553765 0.135866 0.12497 -0.0446565 0.144549 0.142887 -0.0325877 0.154132 
0.156552 -0.0129486 0.169138 0.169261 0.00839384 0.185365 0.172018 0.035126 0.206016 
0.172222 0.0632402 0.227802 0.158846 0.0914277 0.249462 0.141538 0.119636 0.271087 
0.112829 0.141082 0.284822 0.0804226 0.160334 0.295998 0.0450397 0.16884 0.294237 
0.00858198 0.173464 0.287806 -0.0218354 0.169396 0.271647 -0.0498367 0.161852 0.251598 
-0.0681943 0.150887 0.229106 -0.0822974 0.138413 0.205535 -0.088511 0.126518 0.184238 
0.0440944 -0.0206829 0.127153 0.0417892 -0.0233054 0.130632 0.039484 -0.0259277 0.134112 
0.0351617 -0.0292518 0.135704 0.0307974 -0.0325904 0.137256 0.0274639 -0.0368234 0.136942 
0.0241743 -0.0410945 0.136548 0.0231104 -0.0463837 0.134752 0.0221918 -0.0517393 0.132865 
0.0248559 -0.0579559 0.130412 0.0278384 -0.064249 0.12791 0.0357455 -0.0705907 0.125979 
0.0442122 -0.0769379 0.124114 0.0583949 -0.0814277 0.124275 0.0733751 -0.0856584 0.12472 
0.0933064 -0.0849883 0.128987 0.114063 -0.0835015 0.133892 0.136407 -0.0739998 0.144562 
0.159061 -0.0629343 0.156358 0.177193 -0.0427659 0.175311 0.194309 -0.0205493 0.195875 
0.199541 0.00824098 0.222828 0.201727 0.0387168 0.251418 0.187056 0.0696503 0.280746 
0.167505 0.100716 0.310288 0.133547 0.124552 0.32958 0.0949167 0.146043 0.345546 
0.0526839 0.155889 0.343607 0.00915023 0.161531 0.335201 -0.0264532 0.157943 0.313833 
-0.0588846 0.150663 0.287281 -0.0792611 0.139982 0.258355 -0.0943193 0.127801 0.228381 
-0.100049 0.116389 0.202078 0.0412552 -0.0266484 0.124496 0.0387634 -0.0296082 0.127781 
0.0362717 -0.0325679 0.131065 0.0315185 -0.0363049 0.132471 0.0267183 -0.0400581 0.133839 
0.0228414 -0.0448984 0.133333 0.0190038 -0.0497849 0.132747 0.0173744 -0.0560729 0.130729 
0.015889 -0.0624523 0.128617 0.0182261 -0.0703139 0.125896 0.0209029 -0.0783072 0.12312 
0.0292295 -0.087136 0.120923 0.0381981 -0.0960597 0.118792 0.0542221 -0.103747 0.118894 
0.0712307 -0.111262 0.119307 0.0948708 -0.113755 0.124182 0.119616 -0.115411 0.129802 
0.147162 -0.10787 0.142484 0.175255 -0.0985334 0.156545 0.198619 -0.078414 0.179787 
0.220919 -0.0558683 0.205094 0.229199 -0.0255542 0.239192 0.233884 0.00675171 0.275544 
0.218016 0.0398749 0.313882 0.196198 0.0732348 0.352795 0.156555 0.0991058 0.378769 
0.11113 0.122548 0.400547 0.0614176 0.133883 0.398379 0.0101569 0.140846 0.387564 
-0.0309967 0.13841 0.359987 -0.0681074 0.132215 0.325706 -0.0904972 0.122737 0.28936 
-0.106392 0.111812 0.252103 -0.111469 0.101731 0.22027 0.03812 -0.0318838 0.120824 
0.0354218 -0.0350901 0.123855 0.0327236 -0.0382963 0.126887 0.0274631 -0.0423381 0.128066 
0.0221492 -0.0463973 0.129207 0.0175499 -0.0517266 0.128476 0.0129811 -0.0571099 0.127665 
0.010448 -0.064304 0.125367 0.00804761 -0.071616 0.122971 0.00953774 -0.081153 0.119847 
0.0113737 -0.0908877 0.116657 0.0195244 -0.102539 0.113911 0.0283926 -0.114409 0.111216 
0.0459091 -0.126119 0.110785 0.0646323 -0.137807 0.11067 0.0922657 -0.144674 0.115571 
0.121384 -0.150739 0.121307 0.155042 -0.146233 0.13552 0.189586 -0.139664 0.151388 
0.219158 -0.120254 0.178658 0.247612 -0.0979539 0.208495 0.259479 -0.0668554 0.249633 
0.267094 -0.0335008 0.29367 0.250197 0.00060116 0.341073 0.226205 0.0349196 0.38945 
0.181018 0.0617581 0.422314 0.128957 0.0861708 0.450147 0.0720343 0.0990367 0.447895 
0.0133563 0.107733 0.434778 -0.0330734 0.107645 0.401226 -0.0746037 0.104043 0.359498 
-0.0989201 0.0973313 0.316237 -0.115642 0.0892477 0.272299 -0.120208 0.0817615 0.235537 
0.034723 -0.0364735 0.116253 0.0318006 -0.0398458 0.11898 0.0288783 -0.0432182 0.121708 
0.0230428 -0.047469 0.122624 0.0171466 -0.0517382 0.123503 0.0116667 -0.0574519 0.122515 
0.00620445 -0.0632271 0.121449 0.00246847 -0.0712451 0.11882 -0.0011549 -0.0794093 0.116088 
-0.000971611 -0.0906485 0.112442 -0.000449951 -0.102161 0.108714 0.00699811 -0.116933 0.10517 
0.0152333 -0.132075 0.101647 0.0339334 -0.148537 0.100265 0.0540938 -0.165184 0.0991818 
0.085972 -0.177498 0.103591 0.119803 -0.189089 0.108916 0.160378 -0.18857 0.124234 
0.202268 -0.185688 0.141502 0.238913 -0.167571 0.172573 0.274378 -0.146025 0.20675 
0.29031 -0.114796 0.254835 0.301234 -0.0810846 0.306487 0.283458 -0.0470751 0.363004 
0.257374 -0.0129793 0.420929 0.206769 0.0138823 0.460866 0.148211 0.0383976 0.49497 
0.0843168 0.0528316 0.492761 0.0184954 0.0636251 0.477439 -0.0329679 0.0669423 0.438115 
-0.078688 0.0672689 0.389192 -0.104854 0.0647052 0.339461 -0.122394 0.0608663 0.289375 
-0.126575 0.057093 0.248215 0.0312681 -0.0401221 0.111022 0.0281185 -0.0435315 0.113413 
0.0249688 -0.0469409 0.115804 0.0185186 -0.0512216 0.116433 0.0119996 -0.0555204 0.117026 
0.00549201 -0.0613626 0.115758 -0.00101502 -0.0672704 0.114411 -0.00631254 -0.0757602 0.111391 
-0.0115311 -0.0844183 0.108262 -0.0133467 -0.0969464 0.103917 -0.0148597 -0.109818 0.0994639 
-0.00912517 -0.12742 0.0946716 -0.00256701 -0.145558 0.0898408 0.0164442 -0.166968 0.086599 
0.037193 -0.188834 0.0835789 0.0734346 -0.207414 0.086198 0.112258 -0.225447 0.0897568 
0.161018 -0.229623 0.105035 0.211717 -0.231096 0.122599 0.256627 -0.214228 0.156683 
0.300234 -0.193234 0.194484 0.320349 -0.161876 0.248158 0.33444 -0.127859 0.305903 
0.315583 -0.0947459 0.36893 0.287188 -0.0618937 0.433485 0.23189 -0.0361305 0.478208 
0.167868 -0.0126664 0.516499 0.0984906 0.00280128 0.514881 0.0271799 0.0153815 0.498851 
-0.0282404 0.0223308 0.456795 -0.0773044 0.0270279 0.404329 -0.105236 0.0291396 0.35136 
-0.123845 0.0301108 0.298168 -0.128216 0.0304764 0.254786 0.0277577 -0.0428674 0.105157 
0.0243777 -0.04619 0.10718 0.0209977 -0.0495126 0.109204 0.0138945 -0.053651 0.109525 
0.00671375 -0.0578063 0.10981 -0.000962392 -0.0635312 0.108237 -0.00865957 -0.0693228 0.106584 
-0.015863 -0.0779462 0.103116 -0.0230342 -0.0867542 0.0995283 -0.0275129 -0.100175 0.094316 
-0.0317522 -0.114005 0.0889592 -0.0287016 -0.134156 0.0824866 -0.0248226 -0.155026 0.0758872 
-0.00633808 -0.18157 0.0699131 0.0141843 -0.208905 0.0640263 0.0549032 -0.23454 0.063608 
0.0989882 -0.259892 0.0641012 0.157152 -0.269443 0.0782391 0.218062 -0.27591 0.0950393 
0.272381 -0.260252 0.131379 0.325217 -0.239616 0.172116 0.349628 -0.208128 0.230077 
0.36675 -0.173857 0.292454 0.346618 -0.142411 0.359491 0.315701 -0.111783 0.427877 
0.256408 -0.0881947 0.475189 0.187911 -0.0668898 0.515667 0.11448 -0.0509014 0.515165 
0.039268 -0.0368329 0.499865 -0.0190755 -0.0260333 0.457993 -0.0706715 -0.0165415 0.405493 
-0.100288 -0.00924777 0.352385 -0.120207 -0.00292387 0.299009 -0.125321 0.00198961 0.255494 
0.0244747 -0.0446586 0.0990053 0.0208951 -0.0477561 0.100659 0.0173155 -0.0508537 0.102312 
0.00961218 -0.0546347 0.102328 0.00182303 -0.05843 0.10231 -0.00701793 -0.0636768 0.100442 
-0.0159036 -0.0689854 0.0984938 -0.0251715 -0.077122 0.0945711 -0.0344642 -0.085443 0.0905196 
-0.0421457 -0.0987222 0.08434 -0.0496839 -0.112442 0.0779713 -0.0504599 -0.133599 0.0693887 
-0.0504676 -0.155601 0.0605545 -0.0339145 -0.185447 0.0506235 -0.0150507 -0.216386 0.0405396 
0.0299098 -0.247608 0.0348979 0.0792197 -0.278877 0.0299965 0.148459 -0.292957 0.0412342 
0.221588 -0.303684 0.0556209 0.286897 -0.288803 0.0940783 0.350446 -0.268161 0.137952 
0.378837 -0.23684 0.199823 0.398212 -0.202781 0.266309 0.375877 -0.173939 0.33513 
0.341467 -0.146608 0.404628 0.278565 -0.126429 0.45214 0.206421 -0.10857 0.492522 
0.130492 -0.0935474 0.493502 0.0531971 -0.0795491 0.480254 -0.00677817 -0.0664911 0.441487 
-0.0598253 -0.0538092 0.392511 -0.0908444 -0.0426931 0.342413 -0.112145 -0.032268 0.29182 
-0.118451 -0.0237591 0.250282 0.0214286 -0.0454557 0.0925553 0.0176815 -0.0481844 0.0938355 
0.0139343 -0.0509131 0.0951157 0.00568596 -0.0541127 0.0948322 -0.00265613 -0.057322 0.0945162 
-0.012658 -0.0617152 0.0923615 -0.0227304 -0.0661587 0.0901286 -0.0342278 -0.0731622 0.0857463 
-0.0458181 -0.0803326 0.0812238 -0.0572644 -0.092394 0.0739732 -0.0686979 -0.10489 0.0664802 
-0.0744911 -0.125444 0.0553399 -0.0796432 -0.146913 0.0437852 -0.0664848 -0.178151 0.0286219 
-0.0507715 -0.210752 0.012955 -0.001815 -0.246032 -0.000187585 0.052682 -0.281758 -0.0129095 
0.134741 -0.299488 -0.00640571 0.222177 -0.313706 0.0038494 0.300122 -0.299153 0.0442794 
0.375932 -0.278127 0.0914987 0.407973 -0.247282 0.156889 0.428792 -0.21392 0.226939 
0.403287 -0.188658 0.295226 0.364372 -0.16574 0.363002 0.298263 -0.150257 0.408225 
0.223335 -0.137184 0.446133 0.146529 -0.124676 0.448978 0.069044 -0.112372 0.439161 
0.00878216 -0.098713 0.406538 -0.0445904 -0.0845126 0.364792 -0.0767186 -0.0709906 0.320984 
-0.0994744 -0.0577679 0.276266 -0.10744 -0.0466558 0.238905 0.0188642 -0.0454679 0.086115 
0.0150219 -0.047722 0.0870434 0.0111796 -0.049976 0.0879717 0.00256577 -0.0524149 0.0874223 
-0.0061474 -0.0548576 0.086842 -0.01705 -0.0580586 0.0844629 -0.0280457 -0.0612918 0.0820071 
-0.0414464 -0.0664858 0.0772765 -0.055004 -0.0718075 0.0723976 -0.0699507 -0.0812841 0.0642495 
-0.0850209 -0.0911299 0.055811 -0.0959815 -0.108425 0.042256 -0.106475 -0.126567 0.0281197 
-0.0975864 -0.154651 0.00737564 -0.0859932 -0.184123 -0.0142904 -0.0338859 -0.217671 -0.0364657 
0.0249737 -0.251898 -0.0587259 0.120009 -0.269484 -0.0582749 0.222103 -0.283821 -0.0533924 
0.312658 -0.270443 -0.00997683 0.400617 -0.250829 0.0421088 0.435088 -0.224006 0.112165 
0.455843 -0.195336 0.186829 0.426063 -0.176831 0.254427 0.381654 -0.16127 0.319978 
0.312463 -0.152654 0.362206 0.235234 -0.146291 0.39687 0.158572 -0.138329 0.401014 
0.0821145 -0.129789 0.394138 0.02268 -0.117779 0.367563 -0.0299454 -0.104381 0.333108 
-0.0624848 -0.0905212 0.295948 -0.0861628 -0.0764569 0.257593 -0.0955871 -0.0642585 0.224907 
0.0168443 -0.0445928 0.0796859 0.0129886 -0.0462527 0.0802864 0.00913292 -0.0479125 0.0808869 
0.000356731 -0.0493881 0.0801096 -0.00852193 -0.0508598 0.0793037 -0.0200312 -0.052486 0.0767692 
-0.0316524 -0.0541187 0.0741613 -0.0465877 -0.0567384 0.0692082 -0.0617391 -0.0594224 0.0641022 
-0.0798872 -0.0647688 0.0552528 -0.0983016 -0.0703518 0.0460707 -0.1146 -0.0813864 0.0302628 
-0.130657 -0.0930405 0.0137019 -0.127028 -0.112832 -0.0130166 -0.120651 -0.133759 -0.0411525 
-0.0663482 -0.159031 -0.0740921 -0.00405788 -0.185028 -0.107832 0.104133 -0.198179 -0.114925 
0.22128 -0.208825 -0.116818 0.324416 -0.197578 -0.0692717 0.424399 -0.181406 -0.0106013 
0.459916 -0.162615 0.0654168 0.478904 -0.143153 0.145883 0.4436 -0.134999 0.212617 
0.39258 -0.130119 0.275376 0.320445 -0.130827 0.313811 0.241462 -0.133347 0.344357 
0.1661 -0.132227 0.349163 0.0920466 -0.129792 0.344672 0.0346985 -0.121974 0.324037 
-0.0159674 -0.112002 0.296944 -0.0481289 -0.100141 0.266835 -0.0721268 -0.0874468 0.235395 
-0.0827812 -0.0758768 0.207946 0.0154418 -0.0432164 0.0734446 0.0116726 -0.0442453 0.0737496 
0.0079035 -0.0452742 0.0740545 -0.000760866 -0.0457214 0.0730999 -0.00952717 -0.0461564 0.072119 
-0.0211557 -0.0460652 0.0695291 -0.032906 -0.0459516 0.0668708 -0.04852 -0.045659 0.0619183 
-0.0643859 -0.0453548 0.0568162 -0.0843034 -0.0457598 0.0477832 -0.104581 -0.0462279 0.0384009 
-0.12417 -0.0491204 0.0215319 -0.143681 -0.0522883 0.0038121 -0.143551 -0.0599106 -0.026373 
-0.14068 -0.0681545 -0.0582975 -0.0851288 -0.079309 -0.0980584 -0.0207979 -0.0909486 -0.139125 
0.0956564 -0.0956052 -0.150737 0.222281 -0.0988993 -0.156601 0.332331 -0.0912756 -0.105438 
0.438652 -0.0811954 -0.0414425 0.472616 -0.0747266 0.0380175 0.488028 -0.0691837 0.121443 
0.44764 -0.0747357 0.185263 0.3911 -0.0834995 0.243407 0.317491 -0.0953525 0.276755 
0.238346 -0.108207 0.30206 0.165653 -0.115097 0.306031 0.0952884 -0.119833 0.302299 
0.0411798 -0.117334 0.285857 -0.0064265 -0.111943 0.26433 -0.0372434 -0.103203 0.239949 
-0.0606531 -0.0929859 0.214309 -0.0718586 -0.0829757 0.191429 0.0147969 -0.0412247 0.0674339 
0.011237 -0.0415777 0.067483 0.00767703 -0.0419306 0.0675321 -0.000538968 -0.0412694 0.066462 
-0.00885192 -0.040587 0.0653685 -0.0200015 -0.0386035 0.0628455 -0.0312718 -0.0365647 0.0602617 
-0.046514 -0.0329451 0.0555837 -0.0620151 -0.0292224 0.0507691 -0.0819447 -0.0236905 0.042188 
-0.102268 -0.0179978 0.0332721 -0.122636 -0.0104389 0.0168047 -0.14301 -0.00266794 -0.000520699 
-0.14422 0.00663708 -0.0310946 -0.142756 0.0161561 -0.0635171 -0.0871186 0.026288 -0.10526 
-0.0224527 0.036522 -0.148557 0.0962609 0.0453458 -0.160975 0.22552 0.0538944 -0.167369 
0.335532 0.0560642 -0.113218 0.441212 0.0567988 -0.0454447 0.470432 0.04568 0.0343649 
0.480047 0.0315218 0.117261 0.435117 0.00814639 0.175649 0.374396 -0.0178973 0.226944 
0.301117 -0.0431299 0.253615 0.223764 -0.0680995 0.272299 0.155416 -0.0844328 0.273603 
0.0903192 -0.0976476 0.26863 0.0408655 -0.101854 0.254236 -0.00233118 -0.102457 0.236074 
-0.0306168 -0.0982149 0.215797 -0.0523241 -0.0918355 0.194586 -0.0632473 -0.0845281 0.175457 
0.0147333 -0.0390326 0.0616771 0.0114764 -0.0387532 0.0614982 0.00821948 -0.0384739 0.0613194 
0.000718444 -0.0367865 0.0601764 -0.00687097 -0.0350697 0.0590133 -0.0170391 -0.0313402 0.0566475 
-0.027317 -0.027525 0.0542306 -0.0412399 -0.0208364 0.0500493 -0.0554005 -0.0139605 0.045753 
-0.0736009 -0.00295444 0.0381978 -0.0921602 0.0084187 0.030353 -0.110468 0.025591 0.0157904 
-0.128747 0.0434222 0.000464551 -0.128255 0.0682154 -0.0267691 -0.125144 0.0939799 -0.0556643 
-0.0700218 0.123463 -0.092323 -0.00623159 0.153565 -0.130276 0.107802 0.174647 -0.137494 
0.231638 0.193968 -0.138716 0.333526 0.191349 -0.0831092 0.430475 0.183794 -0.0147152 
0.451967 0.156828 0.0602306 0.454113 0.124885 0.136856 0.405976 0.0853799 0.185677 
0.343285 0.0436853 0.226449 0.272576 0.00642617 0.244011 0.199268 -0.0293944 0.254046 
0.136888 -0.0541532 0.250926 0.0784541 -0.0749175 0.243056 0.0347247 -0.0851892 0.229097 
-0.00312299 -0.0912638 0.212704 -0.0280488 -0.091264 0.195231 -0.0472738 -0.0885844 0.177282 
-0.0572531 -0.0839837 0.161089 0.0154449 -0.0365731 0.0562589 0.012616 -0.0357198 0.0558893 
0.00978717 -0.0348665 0.0555196 0.00335655 -0.0322625 0.0543606 -0.00314907 -0.029622 0.0531852 
-0.0116658 -0.0243413 0.0510971 -0.0202681 -0.0189483 0.0489701 -0.0316085 -0.00953497 0.045582 
-0.0431274 0.000140549 0.0421116 -0.0572768 0.0160037 0.0363478 -0.0716599 0.0324168 0.0303801 
-0.0841194 0.0580851 0.0197266 -0.0963602 0.084805 0.00854062 -0.0901106 0.123167 -0.0103807 
-0.081281 0.163154 -0.0303813 -0.0274763 0.209407 -0.0525334 0.0338243 0.256705 -0.0750442 
0.133924 0.288414 -0.0690546 0.241595 0.317082 -0.0575039 0.324578 0.31056 -0.00248087 
0.402007 0.296121 0.0623236 0.411795 0.25563 0.125455 0.404238 0.208458 0.188156 
0.35468 0.155081 0.221892 0.292964 0.099908 0.247243 0.227815 0.0524267 0.252456 
0.161553 0.00744 0.251137 0.107305 -0.0243866 0.241252 0.0573945 -0.0514609 0.228274 
0.0208155 -0.0669457 0.212601 -0.0104311 -0.0777946 0.19585 -0.0308921 -0.081696 0.179449 
-0.0465949 -0.0825322 0.163203 -0.0547485 -0.0806436 0.148859 0.0165495 -0.0341407 0.0510828 
0.0142021 -0.0328142 0.0505334 0.0118547 -0.0314877 0.049984 0.0066449 -0.0281559 0.0488212 
0.00137547 -0.0247823 0.0476456 -0.00521725 -0.0183076 0.0458647 -0.0118662 -0.0117009 0.044058 
-0.020153 -0.000256191 0.0415485 -0.0285465 0.011504 0.0389931 -0.0379054 0.0308408 0.0352442 
-0.0473501 0.0508509 0.0313892 -0.0530476 0.0822568 0.0251588 -0.0583192 0.114957 0.0186584 
-0.0457749 0.161818 0.00900622 -0.0307447 0.210655 -0.0010858 0.0210941 0.266536 -0.00749692 
0.0790676 0.323591 -0.0132946 0.163295 0.360816 0.00727942 0.252645 0.394173 0.0329991 
0.314432 0.384975 0.0887769 0.370016 0.366202 0.151318 0.36675 0.317632 0.202422 
0.348394 0.261422 0.250593 0.297455 0.199867 0.267855 0.237083 0.136765 0.276171 
0.178175 0.0833528 0.267863 0.119741 0.0330833 0.254163 0.0741724 -0.00293858 0.236748 
0.0332494 -0.0338155 0.217992 0.004129 -0.0526938 0.199923 -0.0202704 -0.0667727 0.182129 
-0.0360123 -0.0735032 0.166164 -0.0479349 -0.0769918 0.151005 -0.0539793 -0.0772492 0.138024 
0.018224 -0.0317477 0.0462576 0.0164355 -0.030094 0.0455445 0.0146471 -0.0284403 0.0448314 
0.0108761 -0.0246545 0.0436823 0.00706386 -0.0208243 0.0425243 0.00279037 -0.0136732 0.0410935 
-0.00150272 -0.00638083 0.0396511 -0.00605261 0.00608968 0.038144 -0.0106192 0.0188978 0.0366328 
-0.0141155 0.0397022 0.035223 -0.0175166 0.0612172 0.0338224 -0.0151269 0.0943608 0.0327604 
-0.0120791 0.128826 0.0317368 0.00753873 0.176833 0.0327409 0.0294686 0.22673 0.0340278 
0.0784006 0.281881 0.0451477 0.131833 0.337907 0.0579064 0.197376 0.373238 0.0950599 
0.265283 0.404532 0.136973 0.302547 0.394434 0.195448 0.332916 0.375023 0.257648 
0.314641 0.326273 0.296416 0.283893 0.270001 0.329176 0.231632 0.208524 0.327953 
0.173143 0.145541 0.316893 0.121462 0.0924208 0.293365 0.0719886 0.0424993 0.265794 
0.035894 0.00644736 0.23974 0.00463051 -0.0245962 0.214235 -0.0165844 -0.0442298 0.192783 
-0.03378 -0.0592995 0.172952 -0.044434 -0.0673048 0.156498 -0.0522022 -0.0721935 0.141535 
-0.0557267 -0.0737758 0.129212 0.0200376 -0.0294847 0.0416286 0.0188076 -0.027616 0.040742 
0.0175776 -0.0257474 0.0398555 0.0152398 -0.0217133 0.0386944 0.012879 -0.0176341 0.0375275 
0.0108914 -0.0101849 0.0363995 0.00891973 -0.0025924 0.0352731 0.00797132 0.0102038 0.0346824 
0.00708966 0.0233393 0.0341266 0.0090345 0.0443208 0.0348604 0.0112306 0.0659997 0.0357089 
0.0207129 0.0985967 0.0392689 0.0310231 0.132434 0.043137 0.0562328 0.177994 0.053294 
0.0835215 0.225188 0.0643284 0.12897 0.275201 0.0899405 0.177446 0.325684 0.117982 
0.226076 0.355694 0.168747 0.274737 0.38171 0.223945 0.290318 0.370184 0.284989 