# vtk DataFile Version 3.0
vtk output
ASCII
DATASET RECTILINEAR_GRID
FIELD FieldData 2
base_index 1 3 int
34 68 68 
avtOriginalBounds 1 6 double
-3.33333 3.33333 3.33333 10 3.33333 10 
DIMENSIONS 34 34 34
X_COORDINATES 34 float
-3.33333 -3.13131 -2.92929 -2.72727 -2.52525 -2.32323 -2.12121 -1.91919 -1.71717 
-1.51515 -1.31313 -1.11111 -0.909091 -0.707071 -0.505051 -0.30303 -0.10101 0.10101 
0.30303 0.50505 0.70707 0.909091 1.11111 1.31313 1.51515 1.71717 1.91919 
2.12121 2.32323 2.52525 2.72727 2.92929 3.13131 3.33333 
Y_COORDINATES 34 float
3.33333 3.53535 3.73737 3.93939 4.14141 4.34343 4.54545 4.74747 4.94949 
5.15152 5.35354 5.55556 5.75758 5.9596 6.16162 6.36364 6.56566 6.76768 
6.9697 7.17172 7.37374 7.57576 7.77778 7.9798 8.18182 8.38384 8.58586 
8.78788 8.9899 9.19192 9.39394 9.59596 9.79798 10 
Z_COORDINATES 34 float
3.33333 3.53535 3.73737 3.93939 4.14141 4.34343 4.54545 4.74747 4.94949 
5.15152 5.35354 5.55556 5.75758 5.9596 6.16162 6.36364 6.56566 6.76768 
6.9697 7.17172 7.37374 7.57576 7.77778 7.9798 8.18182 8.38384 8.58586 
8.78788 8.9899 9.19192 9.39394 9.59596 9.79798 10 
POINT_DATA 39304
FIELD FieldData 1
grad 3 39304 float
-0.0452477 -0.00759131 0.0898221 -0.0519412 -0.0094689 0.068647 -0.0514091 -0.011076 0.0491681 
-0.0470383 -0.0125394 0.0305903 -0.0393329 -0.0135572 0.0153263 -0.0296913 -0.0143161 0.00198623 
-0.0194633 -0.0145748 -0.00806637 -0.00886376 -0.0145165 -0.0160369 0.000811699 -0.0140373 -0.0214364 
0.00984989 -0.0132678 -0.0250628 0.0173737 -0.0122615 -0.0272131 0.0237616 -0.0110776 -0.0282562 
0.0287304 -0.0098454 -0.0287433 0.0325429 -0.00857389 -0.0287775 0.035356 -0.00738368 -0.0287206 
0.0372851 -0.00626539 -0.0285831 0.0386496 -0.00530448 -0.0284652 0.0394722 -0.00449463 -0.028366 
0.0400609 -0.00389043 -0.0282294 0.0404061 -0.00350044 -0.0280541 0.0407587 -0.00334467 -0.0277485 
0.0411196 -0.00345367 -0.0272957 0.0416888 -0.00378528 -0.0266656 0.0425135 -0.00439009 -0.0258181 
0.0437224 -0.00511994 -0.0248501 0.0454434 -0.00601651 -0.0237217 0.0476331 -0.00681553 -0.0226617 
0.0505026 -0.0074731 -0.021701 0.0537107 -0.00773851 -0.02108 0.0574533 -0.00738469 -0.0209956 
0.0611589 -0.00648695 -0.0214458 0.0648009 -0.00465246 -0.0228169 0.0679832 -0.00248744 -0.0246832 
0.0703001 0.000299727 -0.0274813 -0.0462539 -0.0252205 0.0905637 -0.052819 -0.0239325 0.069065 
-0.0521116 -0.0226253 0.0492358 -0.0475405 -0.0213077 0.0302934 -0.0395891 -0.0200608 0.0147022 
-0.029675 -0.0188549 0.00105672 -0.0191631 -0.0176201 -0.00918872 -0.00827268 -0.0163671 -0.0172808 
0.0016496 -0.0150382 -0.0226826 0.0109042 -0.0136568 -0.026229 0.0185691 -0.0122458 -0.0282423 
0.0250417 -0.0108127 -0.0291057 0.0300272 -0.00942804 -0.0294097 0.0338009 -0.00808298 -0.0292579 
0.0365288 -0.00685015 -0.029024 0.0383316 -0.00571661 -0.0287175 0.0395382 -0.00474324 -0.0284274 
0.0401724 -0.00392364 -0.0281532 0.0405495 -0.00330824 -0.0278196 0.0406586 -0.00290556 -0.027424 
0.040765 -0.00274517 -0.026856 0.0408683 -0.00285868 -0.026093 0.0412025 -0.00321824 -0.0250937 
0.0418202 -0.00387977 -0.0238042 0.042903 -0.00469626 -0.022336 0.0446059 -0.00571936 -0.0206297 
0.0469166 -0.00664625 -0.0189794 0.0501085 -0.00743363 -0.0174104 0.053766 -0.00775356 -0.0162698 
0.0581586 -0.00733541 -0.0158054 0.0625098 -0.00623118 -0.0160577 0.0667901 -0.00394537 -0.0175443 
0.0704266 -0.00122654 -0.0196956 0.0728515 0.00230738 -0.023098 -0.0427719 -0.0412144 0.0856018 
-0.0490213 -0.0369745 0.0656546 -0.0484172 -0.0329108 0.0469485 -0.0441721 -0.0289407 0.0289017 
-0.0365749 -0.0255176 0.0138769 -0.0270313 -0.0224121 0.000606728 -0.0168094 -0.019748 -0.0094044 
-0.0061579 -0.0173634 -0.0173514 0.00358135 -0.0152614 -0.0226486 0.0126915 -0.0133543 -0.0261183 
0.0202298 -0.011629 -0.0280662 0.0265893 -0.0100401 -0.0288726 0.0314589 -0.00858712 -0.0291228 
0.0351145 -0.00724481 -0.0289196 0.0377115 -0.00602897 -0.0286266 0.039372 -0.00492501 -0.0282542 
0.0404154 -0.00396496 -0.0278756 0.0408663 -0.00314308 -0.0274912 0.0410334 -0.00250388 -0.0270065 
0.0409046 -0.00205497 -0.0264172 0.0407521 -0.00183645 -0.025591 0.0405727 -0.00187837 -0.024497 
0.0406369 -0.0021737 -0.0230765 0.0410002 -0.00278004 -0.021255 0.041917 -0.00356516 -0.019157 
0.0435717 -0.00458869 -0.0166903 0.0460139 -0.00552014 -0.0142393 0.0495981 -0.00631809 -0.0118113 
0.0538322 -0.00656674 -0.00992481 0.0590923 -0.00594808 -0.00889333 0.064322 -0.00447292 -0.00884789 
0.0694992 -0.00152268 -0.0105006 0.0737903 0.00198369 -0.0130725 0.0764134 0.00653691 -0.0173744 
-0.038125 -0.054583 0.0796533 -0.0439499 -0.0479528 0.0616009 -0.0434655 -0.0416055 0.0443453 
-0.0396293 -0.0354085 0.0275132 -0.0325264 -0.0301267 0.0133068 -0.0235266 -0.0253764 0.000624954 
-0.0137718 -0.021465 -0.00902034 -0.00353902 -0.0180849 -0.0167425 0.00586414 -0.0153045 -0.0219204 
0.0146951 -0.0129378 -0.0253437 0.0220081 -0.0109432 -0.0272841 0.0281825 -0.00922776 -0.0281123 
0.0328926 -0.00772521 -0.0283868 0.0364094 -0.00639611 -0.0282099 0.0388705 -0.00520131 -0.0279257 
0.0403976 -0.0041253 -0.0275463 0.0412927 -0.00317007 -0.027129 0.0415813 -0.00233079 -0.0266752 
0.0415598 -0.00164267 -0.0260726 0.0412152 -0.00111201 -0.0253152 0.0408221 -0.000785301 -0.0242484 
0.0403741 -0.000689162 -0.0228318 0.040176 -0.000835252 -0.0209851 0.0402843 -0.00127862 -0.0186104 
0.0410319 -0.00190668 -0.0158386 0.042632 -0.00278098 -0.0125375 0.0452141 -0.00355881 -0.00918698 
0.0492204 -0.00419676 -0.00576495 0.0540911 -0.00420885 -0.00300296 0.0603264 -0.00323274 -0.00128314 
0.0665515 -0.00124223 -0.000876383 0.0727588 0.00249528 -0.00273102 0.0778008 0.00689694 -0.00581667 
0.0806493 0.0125487 -0.0112195 -0.0308376 -0.0620011 0.071469 -0.0359912 -0.0542533 0.0560888 
-0.0356638 -0.0466941 0.0410259 -0.0324244 -0.039235 0.0261317 -0.0261333 -0.0328144 0.013315 
-0.0180701 -0.026997 0.00170451 -0.00918423 -0.022251 -0.00727685 0.000222553 -0.0181837 -0.0145931 
0.00894261 -0.0149395 -0.0196184 0.0171891 -0.012263 -0.0230639 0.0240527 -0.0101011 -0.0251283 
0.0298793 -0.00832508 -0.0261569 0.0343309 -0.0068157 -0.0266328 0.0376622 -0.00552354 -0.0266583 
0.0399759 -0.00435895 -0.0265364 0.0413893 -0.00330723 -0.0262841 0.0421703 -0.00233754 -0.0259407 
0.042344 -0.00144659 -0.0255099 0.0421826 -0.00065262 -0.0248652 0.0416722 4.03296e-05 -0.0239977 
0.0410801 0.000588676 -0.02273 0.0403956 0.000973557 -0.0210098 0.039952 0.00116942 -0.0187257 
0.0398042 0.0011333 -0.0157494 0.0403758 0.000947271 -0.0122044 0.0419066 0.000561374 -0.00790096 
0.0446476 0.000295715 -0.00342673 0.0491434 0.000204402 0.00129518 0.0547866 0.000803533 0.00522648 
0.0622414 0.00249284 0.00790943 0.0697271 0.00532605 0.0088216 0.0772659 0.0101293 0.0066841 
0.0832772 0.0156704 0.00287335 0.0864128 0.0226005 -0.00408702 -0.0234857 -0.0672279 0.0638532 
-0.0279049 -0.058786 0.051009 -0.0276712 -0.0504128 0.0380778 -0.0249658 -0.0420762 0.0251005 
-0.0194649 -0.0348276 0.0136835 -0.0123408 -0.0282107 0.00317261 -0.00435461 -0.0228255 -0.00512576 
0.00417748 -0.0182202 -0.0120228 0.012163 -0.014609 -0.0169026 0.0197716 -0.0116834 -0.0203911 
0.0261448 -0.00938611 -0.0226128 0.0315915 -0.00756018 -0.0238845 0.0357676 -0.00604361 -0.0246068 
0.0389085 -0.00477912 -0.0248814 0.0410815 -0.00363219 -0.0249659 0.0423984 -0.00258927 -0.0248822 
0.0430907 -0.00158644 -0.0246518 0.0431833 -0.000622094 -0.0242805 0.0429224 0.000306965 -0.0236295 
0.0422933 0.00119927 -0.0226871 0.0415538 0.00202165 -0.0212548 0.0406896 0.00276499 -0.0192686 
0.0400578 0.00339844 -0.0165855 0.0397114 0.00389703 -0.0130469 0.0401595 0.00431547 -0.00876219 
0.0416669 0.00462703 -0.00348274 0.0446088 0.00511159 0.00210542 0.0496305 0.00584698 0.00814121 
0.0560871 0.00733071 0.013264 0.0648091 0.00999603 0.0169451 0.0735994 0.0138844 0.0183637 
0.0825071 0.0198792 0.0158858 0.089494 0.0266369 0.0112551 0.0928654 0.0348304 0.00257206 
-0.015973 -0.0669765 0.0576587 -0.0194995 -0.0588988 0.0470101 -0.019202 -0.0507069 0.0360581 
-0.0168729 -0.0424543 0.0249448 -0.0121083 -0.0351542 0.0149529 -0.00592957 -0.0284073 0.0056121 
0.00108001 -0.0228709 -0.00195567 0.00861575 -0.0181013 -0.00840048 0.0157382 -0.0143652 -0.0131519 
0.0225756 -0.0113418 -0.0167355 0.0283556 -0.00898923 -0.019198 0.0333424 -0.00713974 -0.0208196 
0.0372002 -0.00561508 -0.0219006 0.0401381 -0.00435511 -0.0225412 0.0421875 -0.00319443 -0.0229423 
0.0434508 -0.00212158 -0.0231315 0.0441185 -0.00103894 -0.0231116 0.0442143 5.31123e-05 -0.022891 
0.0439547 0.00119037 -0.0223232 0.0433247 0.00237472 -0.0213938 0.0425671 0.00360212 -0.0198877 
0.0416652 0.00487819 -0.0177297 0.0409881 0.00618833 -0.0147434 0.0405869 0.00754029 -0.0107404 
0.0410428 0.00896927 -0.00580018 0.0426414 0.0105009 0.000389679 0.0458891 0.0123308 0.00706722 
0.0515279 0.0145931 0.0144519 0.0588999 0.0176449 0.0208215 0.0690086 0.0219433 0.0255884 
0.0792132 0.0274181 0.0275161 0.0895831 0.0349189 0.024554 0.0975621 0.0430856 0.0188662 
0.101041 0.0525055 0.00804754 -0.00882818 -0.0657546 0.0522891 -0.0114704 -0.0581785 0.0436286 
-0.0110644 -0.0503297 0.0344912 -0.00903905 -0.0423359 0.0251004 -0.00494096 -0.035147 0.0164371 
0.000360659 -0.0284254 0.00819621 0.00644251 -0.0228603 0.001317 0.0130185 -0.0180277 -0.00469982 
0.0193 -0.014235 -0.00933409 0.0253784 -0.0111597 -0.0130149 0.0305717 -0.00877638 -0.015719 
0.0351013 -0.00691218 -0.0176908 0.0386455 -0.00537969 -0.0191349 0.0413868 -0.00411748 -0.0201492 
0.0433255 -0.0029348 -0.0208789 0.0445544 -0.00182248 -0.021357 0.0452263 -0.000650733 -0.0215682 
0.0453636 0.00057807 -0.0215232 0.0451559 0.00193436 -0.0210703 0.0445889 0.00342346 -0.0201924 
0.0438921 0.00507561 -0.0186632 0.0430486 0.00691206 -0.0163978 0.042437 0.00894244 -0.0131941 
0.04211 0.0112108 -0.00883884 0.0427056 0.0137402 -0.00338763 0.0445316 0.0166176 0.00352485 
0.0481966 0.0199468 0.0110724 0.0545282 0.0239312 0.0195409 0.0628427 0.0287458 0.0268975 
0.0742882 0.0348715 0.0324986 0.0858232 0.0420827 0.0347427 0.0975127 0.0511633 0.0312053 
0.10634 0.0607787 0.0244185 0.109778 0.071401 0.0115153 -0.00270243 -0.0618453 0.0492037 
-0.00448334 -0.055151 0.0419569 -0.00384547 -0.0480934 0.0341784 -0.0019226 -0.0408429 0.0261176 
0.00170242 -0.0342154 0.0185159 0.00631579 -0.0279495 0.0111808 0.0116052 -0.0226944 0.00487368 
0.0173228 -0.0180794 -0.000782328 0.0228246 -0.0144197 -0.00533033 0.0281777 -0.0114189 -0.00911419 
0.032803 -0.00907314 -0.0120629 0.0368824 -0.00721876 -0.0143852 0.0401258 -0.00567913 -0.0162043 
0.0426879 -0.00439598 -0.0176133 0.0445525 -0.00316851 -0.0187054 0.0457999 -0.00199028 -0.019517 
0.0465561 -0.000703684 -0.0200163 0.0468406 0.000686935 -0.0202158 0.0468252 0.00229229 -0.0199652 
0.0464973 0.00412132 -0.0192456 0.0460799 0.00625282 -0.0178337 0.0455612 0.00872623 -0.0156391 
0.0453221 0.0115974 -0.0124557 0.0454264 0.0149568 -0.00805867 0.0465274 0.0188354 -0.00249676 
0.0489577 0.0234063 0.0046183 0.0533486 0.0286614 0.0124284 0.0605828 0.0349085 0.0212464 
0.0699146 0.0420256 0.0288703 0.0825586 0.0505164 0.0346091 0.0951918 0.0598791 0.0366362 
0.107806 0.0707434 0.032271 0.117082 0.0819179 0.0242694 0.120073 0.0936762 0.00942285 
0.00302517 -0.057742 0.0466395 0.00206409 -0.0519263 0.0406644 0.00294378 -0.0456798 0.0341148 
0.0048014 -0.0392043 0.0272598 0.00800863 -0.0331827 0.0206247 0.0119995 -0.0274247 0.0141171 
0.0165585 -0.0225292 0.00833381 0.0214773 -0.0181799 0.00300926 0.0262472 -0.0146916 -0.00146094 
0.0309146 -0.011797 -0.00534194 0.0350008 -0.00951162 -0.00852195 0.0386511 -0.00768307 -0.0111762 
0.0416102 -0.00614774 -0.0133543 0.0440059 -0.00485134 -0.0151445 0.0458111 -0.00358675 -0.0165912 
0.0470939 -0.00235032 -0.0177341 0.0479588 -0.000959983 -0.0185267 0.0484224 0.00057811 -0.0189829 
0.0486437 0.0024124 -0.0189565 0.0486126 0.00455524 -0.0184272 0.0485498 0.007132 -0.0171806 
0.048451 0.0101993 -0.0151231 0.0486997 0.0138578 -0.0120553 0.0493749 0.018242 -0.00774773 
0.0511303 0.0233913 -0.00225539 0.0543261 0.0295608 0.0048166 0.0595772 0.0366352 0.0125848 
0.0678083 0.0450221 0.0213625 0.0781878 0.0543167 0.0288593 0.0919592 0.0650446 0.0343338 
0.105583 0.0764486 0.0358497 0.118953 0.0890172 0.0305481 0.128532 0.101711 0.0213095 
0.130976 0.11464 0.00466008 0.0075251 -0.05304 0.0456819 0.00725602 -0.048094 0.0405417 
0.00840817 -0.0427191 0.0348191 0.0103154 -0.0371164 0.0287871 0.0132752 -0.0318384 0.0228254 
0.0168464 -0.0267488 0.0169045 0.020866 -0.022366 0.0114962 0.0251696 -0.0184307 0.00641264 
0.0293551 -0.0152323 0.00199414 0.0334591 -0.0125419 -0.00196566 0.0370957 -0.010387 -0.00533643 
0.0403817 -0.00863376 -0.00826541 0.043107 -0.00713796 -0.0107534 0.0453755 -0.00585197 -0.012882 
0.0471672 -0.00457401 -0.0146599 0.0485374 -0.00330316 -0.0161277 0.0495864 -0.00184328 -0.0172295 
0.0503274 -0.000201935 -0.01798 0.0509225 0.00179928 -0.0182451 0.0513657 0.00417536 -0.0180046 
0.0518893 0.00709226 -0.0170714 0.0525039 0.0106205 -0.0153551 0.0535955 0.0149016 -0.0126972 
0.0552726 0.0201067 -0.00888364 0.0581417 0.0262845 -0.00401668 0.0626004 0.0337592 0.00225478 
0.0691248 0.042325 0.00904225 0.0786446 0.0524728 0.0165779 0.090165 0.0635597 0.0227314 
0.104844 0.0761297 0.0267023 0.119128 0.0892351 0.0267999 0.132731 0.103263 0.020227 
0.142165 0.117353 0.00968288 0.143753 0.131561 -0.00833645 0.0117085 -0.0484298 0.044924 
0.0120887 -0.0443184 0.0405401 0.0135056 -0.0397896 0.0355676 0.0154734 -0.035039 0.0302826 
0.018217 -0.0304971 0.0249337 0.0214111 -0.0260766 0.0195478 0.0249383 -0.0222156 0.0144827 
0.0286764 -0.018709 0.00962074 0.0323211 -0.0158181 0.00525067 0.0359015 -0.0133519 0.00121982 
0.0391193 -0.0113471 -0.00232675 0.0420652 -0.00968837 -0.0055101 0.0445748 -0.00825091 -0.00828811 
0.046729 -0.00699373 -0.0107358 0.0485189 -0.00572259 -0.0128302 0.0499863 -0.00443911 -0.014612 
0.0512324 -0.00293717 -0.0160182 0.0522661 -0.00122551 -0.0170637 0.0532563 0.000898577 -0.0176286 
0.0542014 0.00345227 -0.0176929 0.0553471 0.00663466 -0.0170998 0.0567198 0.0105278 -0.0157637 
0.0587065 0.0153047 -0.0135707 0.0614468 0.0211663 -0.0103262 0.0654918 0.0281645 -0.00618135 
0.0712765 0.0366779 -0.000836213 0.0791256 0.0464215 0.00482722 0.0899678 0.0579488 0.0109522 
0.102649 0.0704294 0.0156009 0.118233 0.0844153 0.0179186 0.133186 0.098832 0.0164763 
0.147051 0.113991 0.00855851 0.156399 0.129206 -0.00337386 0.157248 0.144528 -0.022863 
0.0147986 -0.044137 0.0448559 0.0156801 -0.0407392 0.040957 0.0173354 -0.0369675 0.0364692 
0.0194019 -0.0329973 0.0316686 0.0220367 -0.0291665 0.0267229 0.0250013 -0.0254168 0.0216932 
0.0281982 -0.0221094 0.0168611 0.0315422 -0.0190823 0.0121542 0.0347972 -0.0165602 0.00782128 
0.037991 -0.0143866 0.00374619 0.0408966 -0.0125994 7.54687e-05 0.0435861 -0.011102 -0.00329197 
0.0459424 -0.00978786 -0.00629169 0.0480272 -0.00862303 -0.00899178 0.0498546 -0.00742848 -0.0113513 
0.0514543 -0.00620765 -0.0134096 0.0529418 -0.00475857 -0.0151032 0.0543215 -0.00309037 -0.0164467 
0.0557807 -0.000995577 -0.0173401 0.0573226 0.00154359 -0.0177647 0.0592134 0.00473358 -0.0176042 
0.0614984 0.00865927 -0.0167822 0.0645606 0.0134942 -0.0152444 0.0685764 0.0194448 -0.0128279 
0.0740122 0.0265444 -0.00973951 0.0813413 0.0351756 -0.00575526 0.0906918 0.0450142 -0.00171099 
0.102973 0.0566034 0.00242031 0.116883 0.0691001 0.00500702 0.133364 0.0830297 0.00515491 
0.149017 0.0974097 0.00175242 0.163243 0.112566 -0.00776459 0.172711 0.127969 -0.0213711 
0.173223 0.143836 -0.0426753 0.0176583 -0.0400011 0.0447839 0.0190074 -0.0372847 0.0413311 
0.0208886 -0.0342402 0.0372896 0.0230525 -0.0310213 0.0329353 0.0255921 -0.0278811 0.0283629 
0.0283499 -0.0247865 0.0236639 0.0312449 -0.0220261 0.0190504 0.0342268 -0.0194774 0.0144912 
0.0371223 -0.0173298 0.0101974 0.0399583 -0.0154586 0.00608664 0.0425749 -0.0139024 0.00230536 
0.0450269 -0.0125824 -0.00122884 0.0472429 -0.0114096 -0.00443248 0.0492666 -0.0103568 -0.00736676 
0.0511359 -0.00926144 -0.00997549 0.0528687 -0.00812846 -0.0122962 0.0545957 -0.00676349 -0.0142664 
0.0563173 -0.00517581 -0.0159001 0.0582386 -0.00315861 -0.0171174 0.060368 -0.000693993 -0.0179008 
0.0629896 0.00242446 -0.0181738 0.0661675 0.00628204 -0.0178697 0.0702771 0.0110444 -0.0169902 
0.07553 0.016917 -0.0154044 0.0823076 0.0239097 -0.0133673 0.091118 0.0323957 -0.0107285 
0.101906 0.0420206 -0.00827026 0.11556 0.0532969 -0.00607396 0.130654 0.0653987 -0.00548034 
0.148021 0.0788038 -0.00741726 0.164403 0.0926532 -0.0127228 0.179087 0.107268 -0.02383 
0.188809 0.122285 -0.0391597 0.189192 0.138059 -0.0624379 0.0196192 -0.0364767 0.0446963 
0.0213044 -0.0343167 0.0415377 0.0233625 -0.0318821 0.0377931 0.0256188 -0.0293016 0.0337374 
0.0281172 -0.0267718 0.0294211 0.0307562 -0.0242714 0.0249535 0.0334601 -0.0220321 0.0205023 
0.0362049 -0.0199582 0.0160616 0.0388586 -0.0182063 0.0118149 0.0414494 -0.0166764 0.00770201 
0.0438671 -0.0154034 0.00386314 0.046155 -0.014323 0.000229782 0.0482816 -0.0133619 -0.00310837 
0.0502767 -0.0124979 -0.00620598 0.0522049 -0.01159 -0.00900163 0.0540738 -0.0106432 -0.0115301 
0.0560335 -0.00948416 -0.0137346 0.0580805 -0.00812148 -0.015628 0.0604374 -0.00637027 -0.0171508 
0.0631172 -0.00421435 -0.0182878 0.0664143 -0.00147602 -0.0189982 0.0704092 0.00192066 -0.0192262 
0.075457 0.00610142 -0.0190174 0.0817969 0.0112444 -0.0182727 0.0897253 0.0173182 -0.0172669 
0.0997714 0.0246329 -0.015913 0.111745 0.0328403 -0.0149117 0.126514 0.042342 -0.0144216 
0.142618 0.0524459 -0.0155525 0.160828 0.0635007 -0.0192426 0.178049 0.0748926 -0.0262284 
0.193569 0.0868647 -0.0388904 0.204073 0.099259 -0.0561352 0.205138 0.112448 -0.0820065 
0.0214178 -0.0331115 0.0445104 0.0234148 -0.0314841 0.0416284 0.0256376 -0.0296351 0.0381647 
0.0279804 -0.0276684 0.0343919 0.0304416 -0.0257289 0.0303204 0.0329715 -0.0238052 0.0260754 
0.0354988 -0.0220757 0.0217835 0.0380243 -0.0204693 0.0174618 0.0404535 -0.0191115 0.0132677 
0.0428163 -0.0179251 0.00916169 0.0450488 -0.0169415 0.00527715 0.0471837 -0.0161099 0.00155874 
0.0492271 -0.0153723 -0.00189908 0.051196 -0.0147111 -0.00514455 0.0531802 -0.0140073 -0.00811227 
0.0551779 -0.0132658 -0.0108343 0.0573572 -0.0123363 -0.0132595 0.0597108 -0.0112263 -0.0153999 
0.0624767 -0.00977591 -0.0172157 0.0656721 -0.00797101 -0.0186935 0.0695982 -0.00566627 -0.0198257 
0.0743503 -0.00279649 -0.0205676 0.0802603 0.000721177 -0.0210039 0.0875914 0.00503397 -0.0210653 
0.0965578 0.0100687 -0.0210413 0.107704 0.0160661 -0.0209036 0.12072 0.0226858 -0.0212721 
0.136447 0.030208 -0.0223746 0.153406 0.0380731 -0.0251091 0.17231 0.0464796 -0.0304205 
0.190229 0.055051 -0.0389627 0.206453 0.0639064 -0.0530693 0.217631 0.0731032 -0.0721052 
0.219311 0.082943 -0.10042 0.0224953 -0.0304541 0.0438873 0.0246958 -0.0292533 0.0412044 
0.0270289 -0.0278819 0.0379494 0.0294325 -0.0264199 0.0343905 0.0318744 -0.0249813 0.0305138 
0.0343385 -0.0235562 0.0264525 0.0367538 -0.0222864 0.0223061 0.0391382 -0.0211151 0.0181057 
0.0414201 -0.020144 0.0139888 0.0436313 -0.0193111 0.00992942 0.0457395 -0.0186444 0.00605214 
0.0477705 -0.0181023 0.00231142 0.0497585 -0.0176406 -0.00120003 0.0517115 -0.0172444 -0.00452465 
0.0537391 -0.0168192 -0.00759851 0.0558329 -0.0163684 -0.0104505 0.0581733 -0.0157729 -0.0130369 
0.0607504 -0.0150384 -0.0153681 0.0638073 -0.0140438 -0.0174202 0.0673637 -0.0127781 -0.0191817 
0.071712 -0.0111445 -0.0206676 0.0769555 -0.00909496 -0.021842 0.0833901 -0.00660276 -0.0228091 
0.0912864 -0.00356725 -0.0235219 0.10079 -0.000105335 -0.0242602 0.112436 0.0039251 -0.0250326 
0.125854 0.00820127 -0.0263836 0.141841 0.0128337 -0.0285736 0.15897 0.017389 -0.0323752 
0.177902 0.0218222 -0.0387215 0.195887 0.0259604 -0.0482693 0.212237 0.0295905 -0.0633306 
0.223607 0.0330347 -0.0836071 0.2256 0.0361291 -0.113701 0.0234619 -0.0279452 0.043147 
0.0258489 -0.0271538 0.0406561 0.0282821 -0.0262417 0.0376042 0.0307399 -0.0252654 0.0342542 
0.0331618 -0.0243107 0.0305699 0.0355628 -0.0233685 0.0266915 0.0378721 -0.0225464 0.0226925 
0.0401233 -0.0218004 0.0186172 0.0422662 -0.0212103 0.0145838 0.0443344 -0.0207276 0.0105794 
0.0463245 -0.0203776 0.0067192 0.0482563 -0.0201271 0.00296727 0.0501897 -0.0199456 -0.000585998 
0.0521245 -0.0198203 -0.00397738 0.0541885 -0.0196812 -0.0071448 0.0563668 -0.0195301 -0.0101141 
0.0588504 -0.0192793 -0.0128483 0.0616272 -0.0189327 -0.0153569 0.0649422 -0.0184082 -0.0176305 
0.068818 -0.0176982 -0.0196593 0.0735348 -0.0167543 -0.0214788 0.0792024 -0.015546 -0.0230618 
0.0860786 -0.0141012 -0.0245289 0.0944381 -0.0123662 -0.0258538 0.104359 -0.0104995 -0.0273048 
0.116361 -0.00845698 -0.0289241 0.130019 -0.00654431 -0.0311835 0.146078 -0.00481987 -0.0343711 
0.163167 -0.00359863 -0.0391413 0.18188 -0.00317191 -0.0464103 0.199648 -0.00351997 -0.0568283 
0.215788 -0.00520239 -0.0726696 0.226998 -0.00762995 -0.0939187 0.228928 -0.0114601 -0.125347 
0.0238602 -0.0261978 0.0418058 0.0263463 -0.0257275 0.0394708 0.0288273 -0.0251805 0.0365931 
0.0313055 -0.0245929 0.0334271 0.0337038 -0.0240353 0.0299229 0.0360556 -0.0234952 0.0262223 
0.0382896 -0.023059 0.0223809 0.0404491 -0.0226887 0.0184503 0.0424956 -0.0224495 0.0145333 
0.044464 -0.0223008 0.0106257 0.0463683 -0.0222666 0.00683311 0.0482244 -0.0223184 0.00312684 
0.0501075 -0.0224385 -0.000407719 0.0520125 -0.0226144 -0.00380237 0.0540761 -0.0228002 -0.00699882 
0.05628 -0.0229948 -0.01002 0.0588153 -0.0231435 -0.0128348 0.061669 -0.0232483 -0.0154516 
0.0650751 -0.0232677 -0.0178702 0.0690565 -0.0231982 -0.0200823 0.0738664 -0.0230393 -0.0221332 
0.0796129 -0.0227793 -0.0240018 0.0865058 -0.0224944 -0.0258108 0.0948057 -0.022179 -0.0275466 
0.104531 -0.0220217 -0.0294564 0.116156 -0.0220752 -0.0315984 0.129228 -0.0226283 -0.0343864 
0.144395 -0.0239058 -0.0381112 0.160359 -0.0261421 -0.043345 0.17758 -0.0298923 -0.0509614 
0.193692 -0.0349988 -0.0615565 0.207895 -0.042441 -0.0772815 0.217145 -0.0513511 -0.09813 
0.217074 -0.0630243 -0.128623 0.0241862 -0.0245812 0.0403708 0.0267601 -0.0244193 0.038189 
0.029281 -0.0242237 0.0354838 0.0317738 -0.0240103 0.0325005 0.034146 -0.0238361 0.0291767 
0.0364481 -0.0236848 0.0256553 0.0386083 -0.0236232 0.0219743 0.0406787 -0.0236184 0.0181921 
0.0426316 -0.0237222 0.0143967 0.0445035 -0.023901 0.0105922 0.0463236 -0.0241781 0.00687446 
0.0481047 -0.024529 0.00322186 0.0499353 -0.0249488 -0.000285365 0.0518064 -0.0254248 -0.00367412 
0.0538616 -0.0259347 -0.00688998 0.0560796 -0.0264746 -0.00995289 0.0586504 -0.027022 -0.0128375 
0.0615598 -0.0275766 -0.0155511 0.0650291 -0.028137 -0.0181016 0.0690816 -0.0287033 -0.0204824 
0.0739418 -0.0293208 -0.0227472 0.0797147 -0.0299962 -0.0248809 0.0865619 -0.0308509 -0.0270069 
0.0947276 -0.0319256 -0.0291232 0.104171 -0.0334355 -0.0314558 0.115319 -0.0355257 -0.0340766 
0.12769 -0.0384659 -0.0373429 0.141832 -0.0426386 -0.0415452 0.156522 -0.0481981 -0.0471737 
0.172074 -0.0559471 -0.0550541 0.186334 -0.0655912 -0.0657175 0.198371 -0.0784991 -0.081174 
0.205436 -0.0935302 -0.1014 0.203145 -0.112558 -0.130602 0.0240787 -0.0237498 0.0383731 
0.0266713 -0.0238204 0.0363276 0.0291856 -0.0238933 0.0337846 0.0316582 -0.0239673 0.0309774 
0.0339894 -0.0240942 0.0278361 0.0362386 -0.0242518 0.0245009 0.0383336 -0.0244965 0.0209971 
0.040331 -0.0247963 0.0173865 0.0422079 -0.0251956 0.0137441 0.0440017 -0.0256635 0.0100799 
0.0457476 -0.0262247 0.00648041 0.0474575 -0.0268558 0.00292949 0.0492235 -0.0275632 -0.000498561 
0.0510352 -0.0283326 -0.00382649 0.0530339 -0.0291622 -0.0070039 0.0551979 -0.0300448 -0.0100482 
0.0577059 -0.0309856 -0.0129377 0.060544 -0.0319823 -0.0156788 0.0639103 -0.0330655 -0.0182831 
0.0678269 -0.0342391 -0.020745 0.0724798 -0.0355816 -0.0231195 0.0779651 -0.0371153 -0.0253952 
0.0843923 -0.0389875 -0.0276885 0.0919755 -0.0412754 -0.0300032 0.100622 -0.0441989 -0.0325414 
0.110687 -0.04797 -0.0353777 0.121674 -0.0528254 -0.0388203 0.133996 -0.0592533 -0.043142 
0.146512 -0.0673295 -0.048752 0.159335 -0.0780084 -0.056396 0.170569 -0.0908658 -0.0664757 
0.179066 -0.107475 -0.08075 0.182593 -0.126458 -0.0990185 0.176766 -0.149909 -0.124805 
0.0239275 -0.0230233 0.0363199 0.0265316 -0.0233172 0.0344092 0.0290338 -0.0236483 0.0320276 
0.0314818 -0.023999 0.0293958 0.0337695 -0.0244163 0.0264373 0.0359642 -0.0248723 0.0232892 
0.0379934 -0.0254134 0.0199642 0.0399179 -0.0260084 0.0165274 0.041719 -0.0266949 0.0130412 
0.043435 -0.0274446 0.00952107 0.0451063 -0.0282833 0.0060443 0.046744 -0.0291887 0.00260006 
0.0484427 -0.0301779 -0.000743277 0.0501909 -0.0312355 -0.0040044 0.0521267 -0.0323788 -0.00713685 
0.0542283 -0.033598 -0.0101555 0.0566621 -0.0349243 -0.0130423 0.0594147 -0.0363535 -0.0158026 
0.0626603 -0.037947 -0.0184512 0.0664195 -0.0397118 -0.0209837 0.0708401 -0.0417576 -0.0234556 
0.0760084 -0.0441211 -0.025859 0.081983 -0.0469732 -0.0283028 0.088947 -0.0504248 -0.0307962 
0.0967583 -0.0546974 -0.0335174 0.105699 -0.0600649 -0.0365424 0.115261 -0.0667284 -0.0401311 
0.125723 -0.0752712 -0.044537 0.136033 -0.0856898 -0.0500888 0.146101 -0.0990701 -0.0574498 
0.154297 -0.114861 -0.066893 0.159268 -0.134803 -0.079922 0.159302 -0.157298 -0.0961702 
0.150042 -0.184599 -0.118478 0.0234641 -0.0230487 0.0338684 0.0260272 -0.0235002 0.0320824 
0.0284785 -0.0240161 0.0298559 0.0308704 -0.0245664 0.0273954 0.0330956 -0.0251974 0.0246216 
0.035224 -0.0258752 0.0216658 0.0371835 -0.0266422 0.0185319 0.039036 -0.0274658 0.0152852 
0.0407632 -0.0283807 0.0119779 0.0424039 -0.0293587 0.0086288 0.0439972 -0.0304277 0.00530675 
0.045555 -0.031565 0.00200499 0.0471669 -0.0327959 -0.00121389 0.0488228 -0.0341031 -0.00436523 
0.05065 -0.0355183 -0.00740613 0.0526287 -0.0370289 -0.0103493 0.0549066 -0.0386841 -0.0131786 
0.0574716 -0.040478 -0.0158985 0.0604694 -0.042491 -0.018524 0.063918 -0.0447322 -0.0210513 
0.0679265 -0.0473253 -0.0235322 0.0725677 -0.0503163 -0.0259609 0.0778557 -0.0538773 -0.0284354 
0.0839374 -0.0581379 -0.030966 0.0906365 -0.0632975 -0.0337073 0.0981588 -0.0696557 -0.0367294 
0.106007 -0.0773588 -0.0402479 0.114329 -0.0870121 -0.044486 0.122188 -0.0985233 -0.0496955 
0.129318 -0.112968 -0.0564386 0.134395 -0.129686 -0.0648671 0.135935 -0.150318 -0.076198 
0.132796 -0.173177 -0.0899728 0.120847 -0.200226 -0.108348 0.0229773 -0.023148 0.031396 
0.0254951 -0.0237506 0.0297333 0.0278922 -0.0244444 0.0276609 0.0302251 -0.0251865 0.0253709 
0.0323857 -0.0260234 0.0227812 0.0344463 -0.0269151 0.0200176 0.036335 -0.0279004 0.017075 
0.0381147 -0.0289449 0.014019 0.0397672 -0.0300811 0.0108918 0.041332 -0.0312805 0.00771532 
0.0428464 -0.0325732 0.0045501 0.044323 -0.0339358 0.0013933 0.045846 -0.0354019 -0.0016982 
0.0474069 -0.0369521 -0.00473649 0.0491218 -0.0386315 -0.00768212 0.0509728 -0.0404252 -0.0105458 
0.0530889 -0.0423992 -0.0133129 0.0554593 -0.0445463 -0.0159874 0.0582014 -0.046964 -0.018584 
0.0613305 -0.0496636 -0.0210995 0.0649175 -0.0527811 -0.0235822 0.0690221 -0.0563711 -0.0260277 
0.0736154 -0.0606053 -0.0285232 0.0788084 -0.06563 -0.0310801 0.0843931 -0.0716208 -0.0338293 
0.0905002 -0.0788998 -0.0368348 0.0966475 -0.087558 -0.0402687 0.102853 -0.0982158 -0.0443236 
0.108303 -0.110694 -0.0491764 0.112559 -0.126048 -0.0552892 0.114602 -0.143514 -0.0626989 
0.112835 -0.164619 -0.0723419 0.106667 -0.187603 -0.0836811 0.0922128 -0.214126 -0.098213 
0.0222859 -0.0238972 0.0287382 0.0247204 -0.0245951 0.0271888 0.0270333 -0.0254036 0.0252618 
0.0292817 -0.0262708 0.0231341 0.0313594 -0.0272447 0.0207241 0.0333381 -0.0282805 0.0181502 
0.0351464 -0.0294162 0.0154013 0.0368467 -0.0306152 0.0125416 0.0384186 -0.0319096 0.0096049 
0.0399019 -0.0332699 0.00661512 0.0413285 -0.0347279 0.00362526 0.0427125 -0.0362593 0.000635324 
0.0441285 -0.0379023 -0.00230305 0.0455705 -0.0396363 -0.00519941 0.0471398 -0.0415135 -0.00801714 
0.0488216 -0.0435176 -0.0107653 0.0507241 -0.0457223 -0.0134299 0.0528384 -0.0481196 -0.0160143 
0.0552544 -0.0508121 -0.0185314 0.0579849 -0.053812 -0.0209782 0.0610692 -0.0572527 -0.0233975 
0.0645536 -0.0611918 -0.0257856 0.0683804 -0.0657836 -0.0282178 0.0726276 -0.0711767 -0.0307042 
0.0770785 -0.0775091 -0.0333543 0.0818012 -0.0850937 -0.0362225 0.0863559 -0.0939619 -0.0394445 
0.0906674 -0.104691 -0.0431798 0.0940619 -0.117035 -0.0475504 0.0960087 -0.131925 -0.0529241 
0.0957749 -0.148568 -0.059279 0.0917854 -0.168228 -0.0673238 0.0838563 -0.18925 -0.0765596 
0.0685115 -0.212833 -0.0880377 0.0215844 -0.0246902 0.0260817 0.0239333 -0.0254793 0.0246447 
0.0261603 -0.0263979 0.0228618 0.0283224 -0.0273853 0.0208953 0.030316 -0.0284911 0.0186639 
0.0322116 -0.0296656 0.0162788 0.0339386 -0.0309463 0.013723 0.0355587 -0.0322944 0.011059 
0.0370493 -0.0337417 0.00831281 0.0384505 -0.0352575 0.00550984 0.0397885 -0.0368754 0.00269582 
0.0410792 -0.03857 -0.000126494 0.042387 -0.0403843 -0.00291067 0.0437089 -0.042296 -0.00566377 
0.0451311 -0.0443644 -0.00835196 0.0466422 -0.0465714 -0.0109827 0.0483294 -0.048998 -0.0135426 
0.0501857 -0.0516356 -0.0160345 0.0522745 -0.0545908 -0.0184691 0.0546054 -0.0578768 -0.020844 
0.0571875 -0.0616235 -0.0231963 0.0600536 -0.0658909 -0.0255228 0.0631191 -0.0708158 -0.0278873 
0.0664292 -0.0765477 -0.0302983 0.0697606 -0.0831869 -0.0328442 0.0731201 -0.0910359 -0.03557 
0.0761124 -0.100068 -0.0385761 0.0785721 -0.110815 -0.0419887 0.0799657 -0.122964 -0.0458775 
0.0796761 -0.137328 -0.050518 0.0772488 -0.153083 -0.0558337 0.0711402 -0.171234 -0.0623122 
0.0615563 -0.190237 -0.0694973 0.0454309 -0.210846 -0.0780123 0.0207697 -0.0259757 0.0234402 
0.0230079 -0.0268106 0.022104 0.025128 -0.0277874 0.0204529 0.0271852 -0.0288396 0.0186344 
0.0290798 -0.0300188 0.0165701 0.0308797 -0.0312718 0.014363 0.0325153 -0.0326369 0.0119928 
0.0340466 -0.0340731 0.00951924 0.0354479 -0.0356127 0.00696216 0.0367596 -0.0372237 0.00434747 
0.0380006 -0.0389408 0.00171474 0.0391884 -0.0407375 -0.000931522 0.0403762 -0.0426583 -0.00354945 
0.0415641 -0.0446802 -0.00614428 0.042823 -0.0468639 -0.00868457 0.0441447 -0.0491908 -0.0111766 
0.0455975 -0.0517414 -0.0136069 0.0471762 -0.054507 -0.0159779 0.0489228 -0.0575893 -0.0182978 