# vtk DataFile Version 3.0
vtk output
ASCII
DATASET RECTILINEAR_GRID
FIELD FieldData 2
base_index 1 3 int
0 34 68 
avtOriginalBounds 1 6 double
-10 -3.33333 -3.33333 3.33333 3.33333 10 
DIMENSIONS 34 34 34
X_COORDINATES 34 float
-10 -9.79798 -9.59596 -9.39394 -9.19192 -8.9899 -8.78788 -8.58586 -8.38384 
-8.18182 -7.9798 -7.77778 -7.57576 -7.37374 -7.17172 -6.9697 -6.76768 -6.56566 
-6.36364 -6.16162 -5.9596 -5.75758 -5.55556 -5.35354 -5.15152 -4.9495 -4.74747 
-4.54545 -4.34343 -4.14141 -3.93939 -3.73737 -3.53535 -3.33333 
Y_COORDINATES 34 float
-3.33333 -3.13131 -2.92929 -2.72727 -2.52525 -2.32323 -2.12121 -1.91919 -1.71717 
-1.51515 -1.31313 -1.11111 -0.909091 -0.707071 -0.505051 -0.30303 -0.10101 0.10101 
0.30303 0.50505 0.70707 0.909091 1.11111 1.31313 1.51515 1.71717 1.91919 
2.12121 2.32323 2.52525 2.72727 2.92929 3.13131 3.33333 
Z_COORDINATES 34 float
3.33333 3.53535 3.73737 3.93939 4.14141 4.34343 4.54545 4.74747 4.94949 
5.15152 5.35354 5.55556 5.75758 5.9596 6.16162 6.36364 6.56566 6.76768 
6.9697 7.17172 7.37374 7.57576 7.77778 7.9798 8.18182 8.38384 8.58586 
8.78788 8.9899 9.19192 9.39394 9.59596 9.79798 10 
POINT_DATA 39304
FIELD FieldData 1
grad 3 39304 float
-0.0512949 -0.0726875 -0.00456902 -0.0583212 -0.0796878 -0.0029638 -0.0653474 -0.086688 -0.00135858 
-0.0804672 -0.0957754 0.000831519 -0.0957555 -0.104906 0.00303379 -0.112862 -0.117548 0.00601891 
-0.130046 -0.13034 0.00903732 -0.146419 -0.148817 0.0131045 -0.162739 -0.167665 0.01724 
-0.171117 -0.194364 0.0225502 -0.178789 -0.22176 0.0279648 -0.166002 -0.255373 0.0336981 
-0.15089 -0.289693 0.0394676 -0.107506 -0.317565 0.0428226 -0.0601775 -0.344536 0.0458409 
0.00118638 -0.346359 0.0447432 0.0648894 -0.34399 0.0429595 0.115157 -0.31777 0.0401416 
0.162802 -0.286897 0.037122 0.185732 -0.25079 0.0358196 0.2031 -0.213505 0.0349037 
0.203789 -0.182126 0.0354598 0.200203 -0.15226 0.0363934 0.190309 -0.129487 0.0379829 
0.17859 -0.108766 0.0397623 0.16586 -0.0931547 0.0417522 0.152803 -0.0792001 0.0438102 
0.140411 -0.0684153 0.0458482 0.128259 -0.0587753 0.0478789 0.117079 -0.0510109 0.0497065 
0.106288 -0.0439968 0.0514529 0.0964879 -0.0380973 0.0528322 0.0871258 -0.0326895 0.0540495 
0.0788116 -0.0279864 0.0547989 -0.0582038 -0.0649857 -0.00259269 -0.0657932 -0.0709861 -0.000764688 
-0.0733826 -0.0769864 0.00106331 -0.0900397 -0.0848582 0.00350771 -0.106886 -0.092769 0.00596494 
-0.126634 -0.104 0.00928596 -0.146507 -0.115372 0.0126437 -0.166953 -0.132476 0.0172605 
-0.187437 -0.149953 0.0219593 -0.200345 -0.176084 0.0282485 -0.21258 -0.202985 0.034679 
-0.200372 -0.238104 0.0417589 -0.185387 -0.274156 0.0489126 -0.133103 -0.305126 0.0527613 
-0.0756148 -0.335388 0.0561489 0.000999572 -0.337923 0.053523 0.0808016 -0.335838 0.0498949 
0.141708 -0.307246 0.045137 0.198928 -0.273481 0.0401587 0.223184 -0.235459 0.03795 
0.240023 -0.19648 0.0363646 0.236787 -0.165079 0.0367466 0.228403 -0.13562 0.0376331 
0.21397 -0.113976 0.0392401 0.197786 -0.0945952 0.0410558 0.181678 -0.0804166 0.043047 
0.165596 -0.0679252 0.0450952 0.151045 -0.0584917 0.04709 0.137046 -0.0501624 0.0490655 
0.124552 -0.0435652 0.0508223 0.112661 -0.0376609 0.0524916 0.102059 -0.0327399 0.053795 
0.0920254 -0.0282527 0.0549369 0.0831905 -0.0243549 0.0556223 -0.063473 -0.0563455 -0.00110454 
-0.0714828 -0.0610756 0.000895944 -0.0794926 -0.0658058 0.00289642 -0.097346 -0.0719357 0.00553083 
-0.115404 -0.0780948 0.00817844 -0.137363 -0.0868606 0.0117431 -0.159488 -0.0957372 0.0153467 
-0.183685 -0.109338 0.0203721 -0.208017 -0.123247 0.0254902 -0.22579 -0.144704 0.032572 
-0.24298 -0.166832 0.0398284 -0.2326 -0.196849 0.0480955 -0.219087 -0.227763 0.0564774 
-0.158752 -0.255328 0.0605704 -0.0918836 -0.282427 0.0640648 0.00017943 -0.28502 0.0594568 
0.0964416 -0.283529 0.0534984 0.167747 -0.258103 0.0469313 0.234184 -0.228007 0.0402455 
0.258826 -0.194715 0.0376352 0.274065 -0.160704 0.0359418 0.266358 -0.133965 0.03649 
0.252768 -0.10909 0.037613 0.233882 -0.0912038 0.0393689 0.213461 -0.0753403 0.0413082 
0.194321 -0.0639365 0.0433356 0.175595 -0.0539792 0.0453915 0.159223 -0.0465613 0.0473485 
0.1437 -0.0400605 0.0492696 0.130156 -0.0349536 0.050958 0.117403 -0.0304043 0.0525531 
0.106194 -0.0266134 0.0537899 0.0956652 -0.0231571 0.0548686 0.0864594 -0.0201303 0.0555102 
-0.0678709 -0.0472068 0.000124267 -0.0762254 -0.0505231 0.00227051 -0.0845798 -0.0538394 0.00441673 
-0.103448 -0.0579479 0.00720701 -0.122536 -0.0620729 0.0100107 -0.146475 -0.0678134 0.0137699 
-0.17062 -0.0736227 0.0175697 -0.198396 -0.0825894 0.0229289 -0.226408 -0.0917619 0.0283898 
-0.249224 -0.106363 0.0361653 -0.271578 -0.121448 0.0441465 -0.263689 -0.142853 0.0535161 
-0.252363 -0.164977 0.0630434 -0.184428 -0.185683 0.067248 -0.108594 -0.20619 0.07071 
-0.000977179 -0.208492 0.0638786 0.111937 -0.20776 0.0553318 0.193514 -0.188445 0.047025 
0.268976 -0.165503 0.0387651 0.293506 -0.14047 0.0360212 0.306577 -0.114967 0.0345184 
0.294111 -0.0953788 0.0354136 0.275097 -0.0773066 0.0369236 0.251802 -0.0645729 0.0388983 
0.227267 -0.0533845 0.0410075 0.205276 -0.0454687 0.0430895 0.18411 -0.0386142 0.0451627 
0.166096 -0.0335649 0.0470846 0.149221 -0.0291675 0.0489519 0.134766 -0.0257226 0.050573 
0.121278 -0.0226587 0.0520955 0.109565 -0.0200784 0.0532706 0.0986356 -0.0177115 0.0542925 
0.0891385 -0.0155905 0.054901 -0.0702431 -0.0376771 0.000883999 -0.078688 -0.0394656 0.00311911 
-0.0871328 -0.0412542 0.00535421 -0.106314 -0.0431035 0.00821597 -0.125719 -0.0449541 0.0110908 
-0.150375 -0.0471543 0.0148938 -0.175254 -0.0493692 0.0187363 -0.204455 -0.0525507 0.024111 
-0.233937 -0.0557952 0.0295857 -0.258911 -0.0610115 0.0373496 -0.283485 -0.0664031 0.045317 
-0.276873 -0.0744262 0.0545217 -0.266717 -0.0827485 0.0638669 -0.195696 -0.0909935 0.0672331 
-0.116182 -0.0992277 0.0697652 -0.00151947 -0.100151 0.0616401 0.119001 -0.0998564 0.0517388 
0.205561 -0.0911719 0.0432491 0.285493 -0.0808503 0.0350348 0.310103 -0.0693488 0.0329161 
0.322264 -0.0575818 0.032169 0.307541 -0.048489 0.0335895 0.285924 -0.0400818 0.0355657 
0.260498 -0.0341506 0.0377695 0.233968 -0.0289362 0.0400392 0.210595 -0.025249 0.0421651 
0.188245 -0.0220571 0.0442445 0.169446 -0.0196968 0.0461258 0.151929 -0.0176368 0.0479357 
0.137058 -0.0159847 0.0494901 0.123247 -0.0144959 0.0509424 0.111331 -0.0131721 0.0520613 
0.100252 -0.011921 0.0530332 0.0906591 -0.0107156 0.053618 -0.071439 -0.0279204 0.00137136 
-0.0798267 -0.028115 0.00366232 -0.0882145 -0.0283096 0.00595327 -0.107301 -0.0277618 0.0088375 
-0.12661 -0.0271986 0.0117341 -0.151248 -0.0255591 0.0154935 -0.176114 -0.0238738 0.0192895 
-0.205489 -0.0206017 0.024495 -0.235159 -0.0172261 0.0297923 -0.260616 -0.0115883 0.0371352 
-0.285699 -0.00574951 0.0446598 -0.27966 0.00237993 0.0529636 -0.270084 0.0107696 0.0613559 
-0.198598 0.0182372 0.0633322 -0.118473 0.0255761 0.0644132 -0.00170507 0.0266626 0.0555341 
0.12117 0.0267071 0.044995 0.209641 0.022135 0.0372262 0.291399 0.0166621 0.029998 
0.316198 0.0115718 0.0289452 0.328181 0.00656758 0.0292819 0.312655 0.00322232 0.0313312 
0.290074 0.000302446 0.0338197 0.263838 -0.00152693 0.0362587 0.236542 -0.00304065 0.0386833 
0.21264 -0.00401224 0.040847 0.189838 -0.00480801 0.042926 0.170749 -0.00532266 0.0447635 
0.153003 -0.00573579 0.0465138 0.138005 -0.0059526 0.048002 0.124108 -0.00609088 0.0493854 
0.112164 -0.00605012 0.0504513 0.101082 -0.00593038 0.0513772 0.091507 -0.00564616 0.0519437 
-0.070652 -0.0183965 0.00140791 -0.0787266 -0.0170919 0.00370016 -0.0868011 -0.0157872 0.00599239 
-0.105079 -0.0130241 0.00882333 -0.123569 -0.0102306 0.0116655 -0.146885 -0.00512941 0.0152569 
-0.170407 6.99079e-05 0.0188801 -0.197671 0.00896576 0.0236753 -0.225179 0.0181027 0.028547 
-0.24787 0.0327909 0.0349912 -0.270133 0.0479725 0.0415752 -0.262823 0.0689462 0.0483285 
-0.252152 0.0905781 0.055101 -0.18462 0.110232 0.0558671 -0.109155 0.129611 0.055795 
7.72625e-06 0.132624 0.0476615 0.114786 0.13291 0.0381844 0.198688 0.118331 0.0318818 
0.276565 0.100853 0.0261987 0.301744 0.0824305 0.0259935 0.315066 0.0637957 0.0270208 
0.301766 0.0499471 0.0293789 0.28164 0.0373257 0.0320783 0.257255 0.0286769 0.0345887 
0.231638 0.021178 0.0370444 0.208852 0.0159961 0.0391843 0.186985 0.0115658 0.0412217 
0.168533 0.00840848 0.042997 0.151314 0.00571088 0.0446776 0.13671 0.00376107 0.0460968 
0.12315 0.00211038 0.0474114 0.111482 0.000955636 0.0484254 0.100648 1.96978e-05 0.0493069 
0.0912798 -0.000558937 0.0498554 -0.0686093 -0.00902008 0.00115894 -0.0762085 -0.00627617 0.00341792 
-0.0838077 -0.00353227 0.0056769 -0.100824 0.00133111 0.00840654 -0.118037 0.00623862 0.011146 
-0.139205 0.014562 0.0144906 -0.160541 0.0230307 0.017861 -0.184245 0.0370247 0.0220934 
-0.208103 0.051379 0.026382 -0.225971 0.0739754 0.0316252 -0.243306 0.0973043 0.0369531 
-0.233557 0.129027 0.0417446 -0.22073 0.161704 0.046475 -0.159952 0.191311 0.0461447 
-0.0924836 0.220491 0.0451082 0.00292283 0.225378 0.03867 0.102986 0.226216 0.0313315 
0.178214 0.203691 0.0269672 0.248596 0.176607 0.0231833 0.274275 0.146917 0.0236873 
0.289896 0.11664 0.0251561 0.280742 0.0935135 0.0276204 0.265235 0.0722202 0.0303398 
0.244388 0.057348 0.032818 0.221996 0.0443344 0.0352263 0.20137 0.0352265 0.0373034 
0.181317 0.0273852 0.0392731 0.164087 0.0217323 0.0409745 0.147877 0.0168698 0.042579 
0.133994 0.013273 0.0439274 0.121042 0.0101826 0.0451732 0.109841 0.0078878 0.0461361 
0.0994134 0.00594405 0.0469742 0.0903717 0.00453953 0.0475049 -0.0650412 -0.000403996 0.000502205 
-0.0720133 0.00352931 0.00268578 -0.0789853 0.00746259 0.00486934 -0.0943619 0.0139563 0.00745378 
-0.109914 0.0205034 0.0100466 -0.128389 0.0311178 0.0131044 -0.146988 0.0419052 0.0161821 
-0.16652 0.0590995 0.0198421 -0.186112 0.0767115 0.0235401 -0.198894 0.103467 0.0277134 
-0.21107 0.131035 0.0319288 -0.199434 0.167226 0.0352695 -0.185091 0.204396 0.0385107 
-0.132124 0.237323 0.0378066 -0.0737672 0.269658 0.0365519 0.00653851 0.275344 0.0318586 
0.0905024 0.276589 0.0265922 0.155408 0.251624 0.0237606 0.216594 0.221546 0.021404 
0.241716 0.187251 0.0222507 0.258722 0.152007 0.0238183 0.253783 0.124123 0.0261648 
0.243217 0.0981273 0.0287111 0.226564 0.0794572 0.0310473 0.208149 0.0629077 0.0333227 
0.190351 0.0510853 0.0352934 0.172753 0.040796 0.0371653 0.157234 0.0332624 0.0387795 
0.142466 0.0267239 0.0403005 0.129625 0.0218091 0.0415752 0.117554 0.0175438 0.0427513 
0.107026 0.0142955 0.043661 0.0971779 0.0114959 0.0444532 0.0885959 0.00937533 0.0449604 
-0.0604212 0.00768772 -0.00043574 -0.0666615 0.0126381 0.00164336 -0.0729017 0.0175884 0.00372244 
-0.0863766 0.0253884 0.00613139 -0.100002 0.0332478 0.00854719 -0.115409 0.045511 0.0112907 
-0.130891 0.0579615 0.0140482 -0.145828 0.0770471 0.0171292 -0.16073 0.0965653 0.0202313 
-0.168245 0.124894 0.0234251 -0.175103 0.154006 0.0266271 -0.16196 0.190333 0.0288695 
-0.146543 0.227479 0.0310028 -0.102116 0.259149 0.0304231 -0.05364 0.290056 0.0294648 
0.0106373 0.2958 0.0265506 0.0775483 0.29735 0.0233105 0.130993 0.273746 0.0217318 
0.181811 0.245233 0.0204772 0.205645 0.210928 0.021414 0.223408 0.175319 0.0228437 
0.222732 0.145797 0.0249183 0.217329 0.117836 0.0271581 0.205321 0.0970409 0.0292767 
0.191402 0.0783202 0.0313601 0.176892 0.0646191 0.0331944 0.162191 0.0525459 0.0349477 
0.14872 0.0435554 0.0364654 0.135693 0.0356781 0.0378979 0.124115 0.0296722 0.039097 
0.113116 0.0244148 0.0402028 0.103401 0.0203415 0.0410578 0.0942521 0.0167907 0.0418023 
0.0862218 0.01403 0.0422819 -0.0549255 0.0147133 -0.00170093 -0.0604118 0.0203887 0.000248826 
-0.065898 0.0260641 0.00219857 -0.0774723 0.0346714 0.00442034 -0.0891734 0.0433398 0.00664777 
-0.101697 0.0563835 0.00909955 -0.114255 0.0696133 0.0115609 -0.125232 0.0891122 0.0141701 
-0.136106 0.10902 0.016789 -0.139626 0.136642 0.0192863 -0.142492 0.16495 0.0217726 
-0.128947 0.198624 0.0233698 -0.113536 0.232909 0.0248659 -0.0766705 0.261113 0.0245563 
-0.0368109 0.288469 0.0239948 0.0142299 0.293749 0.0223844 0.0671343 0.295349 0.0205992 
0.110671 0.274706 0.0199111 0.152379 0.249722 0.019437 0.174229 0.218231 0.0204276 
0.191612 0.185276 0.0217477 0.193899 0.156738 0.0235878 0.192316 0.129332 0.0255612 
0.184169 0.108226 0.0274786 0.174124 0.0889436 0.0293797 0.162642 0.0744584 0.0310814 
0.150695 0.0615291 0.0327185 0.139258 0.0517129 0.0341415 0.128006 0.0430209 0.0354874 
0.11775 0.0362879 0.0366112 0.107893 0.0303384 0.0376462 0.0990577 0.0256536 0.0384428 
0.0906728 0.0215267 0.0391344 0.0832501 0.0182522 0.0395765 -0.0487731 0.0209392 -0.00321155 
-0.0534887 0.0271206 -0.00140978 -0.0582043 0.0333021 0.000391982 -0.0678789 0.0423424 0.00241781 
-0.0776569 0.0514423 0.0044483 -0.0874356 0.0646154 0.00662531 -0.0972142 0.0779618 0.00880854 
-0.104707 0.0967655 0.0110265 -0.11205 0.115925 0.0132466 -0.112529 0.14113 0.0152593 
-0.112398 0.166873 0.0172536 -0.0992798 0.195805 0.0185453 -0.0846854 0.225099 0.0197572 
-0.0546478 0.248179 0.0198271 -0.0224554 0.270392 0.0197376 0.0174429 0.274816 0.0190744 
0.0586254 0.276275 0.0183156 0.0934161 0.259794 0.0182464 0.12696 0.239813 0.0183117 
0.146305 0.213255 0.019329 0.162455 0.185217 0.0205604 0.16673 0.159629 0.0221944 
0.167959 0.134669 0.0239315 0.163086 0.114613 0.02566 0.156446 0.0959752 0.0273859 
0.147798 0.081527 0.0289581 0.138497 0.0684373 0.0304805 0.129085 0.0582689 0.0318104 
0.119633 0.0491552 0.0330708 0.110745 0.0419681 0.0341195 0.102083 0.0355517 0.0350836 
0.0941763 0.0304152 0.035819 0.0866034 0.0258435 0.0364535 0.0798303 0.02215 0.0368509 
-0.0423383 0.0260343 -0.00493833 -0.0463457 0.0324811 -0.00329356 -0.0503531 0.038928 -0.0016488 
-0.0583381 0.0480485 0.000188499 -0.0664059 0.0572247 0.0020298 -0.0738938 0.0700342 0.00397197 
-0.081357 0.0829983 0.00591842 -0.0861803 0.100513 0.00784232 -0.0908315 0.118325 0.00976475 
-0.0893105 0.140649 0.0114618 -0.0872409 0.163375 0.0131388 -0.0749975 0.187651 0.0142857 
-0.061598 0.212103 0.0153724 -0.0371611 0.230636 0.0157638 -0.0111842 0.248344 0.0160581 
0.0200526 0.251977 0.0160673 0.0521661 0.253265 0.016029 0.0799603 0.240368 0.0164141 
0.106912 0.224705 0.0168818 0.123785 0.202853 0.0179535 0.13839 0.17961 0.0191611 
0.143745 0.157367 0.0206682 0.146728 0.135382 0.022252 0.144242 0.117011 0.0238456 
0.140173 0.0996856 0.025442 0.133813 0.0858452 0.0269116 0.126709 0.073135 0.02834 
0.119054 0.063031 0.0295884 0.111201 0.0538683 0.0307718 0.103565 0.0465051 0.031748 
0.096017 0.0398617 0.0326413 0.0889951 0.0344503 0.0333102 0.0822055 0.0295826 0.0338801 
0.076069 0.0255788 0.0342204 -0.0356735 0.0302079 -0.00684122 -0.0390236 0.0367241 -0.0053608 
-0.0423737 0.0432403 -0.0038804 -0.04884 0.0521535 -0.0022256 -0.0553713 0.0611166 -0.000567165 
-0.0609381 0.0731608 0.0011727 -0.0664639 0.085336 0.00291602 -0.0692827 0.101078 0.00462521 
-0.0719251 0.117053 0.00633216 -0.0692518 0.136119 0.00785107 -0.066106 0.15546 0.00935325 
-0.0551029 0.17515 0.0104863 -0.0432069 0.19488 0.0115774 -0.0233705 0.209338 0.0122431 
-0.00242615 0.22306 0.0128494 0.022171 0.225956 0.013307 0.0473769 0.227047 0.0137398 
0.0695996 0.217264 0.0144453 0.0912402 0.205359 0.015204 0.105668 0.188031 0.0163525 
0.118473 0.169483 0.0175888 0.12417 0.150908 0.0190337 0.128045 0.132326 0.020532 
0.127224 0.116159 0.0220348 0.125044 0.10069 0.0235389 0.120528 0.0879225 0.0249277 
0.115254 0.0760313 0.0262791 0.109139 0.0663316 0.0274555 0.102721 0.0574233 0.0285686 
0.0962438 0.0501104 0.0294743 0.0897435 0.0434357 0.0302969 0.0835698 0.0378935 0.0308951 
0.07754 0.0328509 0.0313943 0.0720296 0.0286254 0.0316673 -0.0291318 0.0333619 -0.00883874 
-0.0319144 0.0397942 -0.0075202 -0.0346969 0.0462264 -0.00620168 -0.0398916 0.054755 -0.00471464 
-0.0451365 0.0633273 -0.0032241 -0.0491903 0.0744467 -0.00165276 -0.0531934 0.0856744 -7.79943e-05 
-0.0545682 0.0996158 0.00147446 -0.0557716 0.113734 0.00302546 -0.0524623 0.129846 0.00443869 
-0.0487519 0.146135 0.00583966 -0.0390002 0.162 0.00700052 -0.028562 0.177817 0.00813408 
-0.0124396 0.189054 0.00902778 0.00447593 0.199651 0.009888 0.0239094 0.20197 0.0106876 
0.0437626 0.202908 0.0114772 0.0615721 0.19556 0.0124409 0.078983 0.186594 0.0134386 
0.091257 0.172987 0.0146798 0.102375 0.158335 0.0159758 0.10805 0.143021 0.0174073 
0.112328 0.127537 0.0188736 0.112624 0.113548 0.0203289 0.111767 0.0999928 0.0217811 
0.108642 0.0884547 0.0231166 0.104782 0.077571 0.0244144 0.0999067 0.0684649 0.0255324 
0.0946654 0.0600008 0.0265855 0.0891664 0.0528964 0.027423 0.0835643 0.046336 0.0281744 
0.0781335 0.0407745 0.0286945 0.0727782 0.0356537 0.0291127 0.0678355 0.0312767 0.0293026 
-0.0226991 0.035614 -0.01092 -0.0249935 0.0418266 -0.00976113 -0.0272879 0.0480391 -0.00860228 
-0.0314293 0.0560265 -0.00726999 -0.0356092 0.0640508 -0.00593409 -0.038511 0.0741043 -0.0045014 
-0.0413584 0.0842442 -0.0030646 -0.0417849 0.09636 -0.00161757 -0.0420536 0.108605 -0.000169892 
-0.0385649 0.122031 0.00120174 -0.0347422 0.135562 0.00256661 -0.0262518 0.148275 0.00379216 
-0.017231 0.160895 0.00500186 -0.00403846 0.169668 0.00608259 0.00973619 0.177903 0.00714532 
0.0253119 0.179784 0.00819293 0.0411877 0.180607 0.00923802 0.0556088 0.175094 0.0104051 
0.0697461 0.168343 0.011596 0.0801236 0.157747 0.0129437 0.089655 0.146285 0.0143267 
0.0949842 0.133872 0.0157881 0.0992358 0.121214 0.0172696 0.100163 0.109383 0.0187158 
0.100128 0.0977909 0.0201518 0.0979935 0.0876202 0.0214586 0.095178 0.0779106 0.0227234 
0.0912779 0.0695656 0.0237951 0.0869861 0.0617134 0.0247971 0.0823052 0.0549575 0.0255686 
0.0774686 0.0486403 0.026248 0.0726876 0.0431583 0.0266836 0.0679312 0.0380448 0.0270116 
0.0635047 0.0335785 0.0271046 -0.0166008 0.0370437 -0.0129837 -0.0184883 0.0429613 -0.0119753 
-0.0203757 0.0488788 -0.0109669 -0.0236638 0.0562726 -0.00977346 -0.0269811 0.0636971 -0.00857614 
-0.0290053 0.0727038 -0.0072582 -0.0309745 0.0817777 -0.00593512 -0.0307551 0.0922389 -0.0045631 
-0.030393 0.102791 -0.0031879 -0.0269182 0.113936 -0.00182926 -0.0231666 0.125134 -0.000472106 
-0.0158145 0.135306 0.000828122 -0.00805324 0.145362 0.00212188 0.00276147 0.152219 0.00336919 
0.0140022 0.158629 0.00461002 0.0265272 0.160187 0.00586963 0.0392662 0.160936 0.00713238 
0.0509774 0.156865 0.00848349 0.0624881 0.151853 0.00985184 0.0712536 0.143691 0.0113167 
0.0794014 0.134821 0.0128034 0.0843017 0.124872 0.0143237 0.0883693 0.114646 0.0158526 
0.089661 0.104771 0.0173212 0.0901492 0.0949962 0.0187722 0.0887135 0.0861632 0.0200747 
0.0866539 0.0776356 0.0213291 0.0834849 0.0701016 0.0223683 0.0799153 0.0629264 0.0233299 
0.0758701 0.0565839 0.0240369 0.0716347 0.0505744 0.024642 0.0673761 0.0452206 0.024982 
0.0631072 0.0401561 0.025205 0.0591152 0.0356262 0.0251797 -0.0108236 0.0376839 -0.0150306 
-0.0123821 0.0432341 -0.0141638 -0.0139406 0.0487843 -0.013297 -0.0165672 0.0555343 -0.0122271 
-0.0192161 0.0623093 -0.011153 -0.0206263 0.0702874 -0.00992682 -0.0219837 0.0783166 -0.00869421 
-0.0214087 0.0872871 -0.00736799 -0.0207076 0.096319 -0.00603566 -0.0174321 0.105572 -0.00466258 
-0.0139277 0.114845 -0.00328587 -0.0075958 0.123063 -0.00190136 -0.000942554 0.131161 -0.000515964 
0.00802423 0.13663 0.0008783 0.0173138 0.141732 0.0022738 0.0275629 0.143073 0.00371089 
0.0379719 0.143788 0.00515491 0.0476246 0.140784 0.00667148 0.0571297 0.137054 0.00820222 
0.0645566 0.130773 0.00979453 0.0715159 0.123919 0.0114007 0.075907 0.116016 0.0130078 
0.0796396 0.107843 0.0146152 0.0810395 0.0997294 0.0161362 0.081764 0.0916324 0.0176323 
0.0807475 0.0841086 0.0189542 0.0791663 0.0767707 0.0202196 0.0764944 0.0700956 0.0212397 
0.0734287 0.0636598 0.0221712 0.0698443 0.0577928 0.0228149 0.0660524 0.0521533 0.0233435 
0.0621936 0.0469744 0.0235773 0.0583053 0.0419987 0.023681 0.0546693 0.0374299 0.0235169 
-0.00545236 0.037715 -0.0169688 -0.00674212 0.0428746 -0.0162313 -0.00803187 0.0480341 -0.0154938 
-0.010133 0.0541527 -0.0145327 -0.0122511 0.0602912 -0.0135669 -0.013206 0.0673209 -0.0124162 
-0.0141115 0.0743885 -0.0112576 -0.0133215 0.0820543 -0.00996128 -0.0124209 0.0897591 -0.008656 
-0.00939141 0.0974287 -0.00725711 -0.00617276 0.105095 -0.00584991 -0.000729747 0.111735 -0.00437905 
0.00496602 0.118259 -0.00290097 0.0124188 0.122641 -0.00136778 0.0201167 0.126724 0.000173089 
0.0285369 0.127916 0.0017769 0.0370776 0.128626 0.0033912 0.0450678 0.126494 0.00507124 
0.0529507 0.123808 0.00676412 0.0592586 0.119086 0.0084967 0.0652122 0.113906 0.0102382 
0.0691195 0.107758 0.0119575 0.0725022 0.101362 0.0136711 0.0739012 0.0948343 0.0152754 
0.074726 0.0882684 0.0168481 0.0739579 0.0819877 0.0182177 0.0726732 0.0757994 0.0195213 
0.0703156 0.0699807 0.0205402 0.0675705 0.0642954 0.0214563 0.0642795 0.0589174 0.0220382 
0.0607701 0.0536623 0.0224865 0.0571761 0.0486594 0.0225969 0.0535447 0.0437677 0.0225583 
0.0501719 0.0391431 0.0222231 -0.000503931 0.0371118 -0.0187937 -0.00158773 0.0418563 -0.0181727 
-0.00267152 0.0466009 -0.0175517 -0.00438882 0.0521008 -0.016684 -0.00611931 0.0576164 -0.0158111 
-0.00678458 0.0637814 -0.0147188 -0.00740453 0.069974 -0.0136171 -0.00654594 0.0765288 -0.0123342 
-0.00559093 0.0831073 -0.0110394 -0.00285631 0.089514 -0.00960292 3.64946e-05 0.0959054 -0.00815381 
0.00472728 0.101361 -0.00659447 0.00962238 0.106711 -0.0050226 0.0159089 0.110319 -0.00335886 
0.0223896 0.113684 -0.0016823 0.0294467 0.114796 7.70318e-05 0.0365999 0.115531 0.00185016 
0.0433404 0.11407 0.0036916 0.0500003 0.112181 0.00554637 0.0554181 0.108681 0.00743261 
0.0605564 0.104819 0.00932593 0.0640062 0.100124 0.0111837 0.0670232 0.0952162 0.0130325 
0.068308 0.0900916 0.0147522 0.0690914 0.0849042 0.0164345 0.0683939 0.0797977 0.0178812 
0.0672162 0.0747174 0.0192513 0.0649822 0.0697524 0.0202878 0.0623668 0.0648291 0.0212037 
0.0591949 0.0599542 0.0217253 0.0558003 0.0550987 0.0220892 0.0523305 0.0502728 0.0220585 
0.0488273 0.0454601 0.0218537 0.045621 0.0407618 0.0213138 0.00404641 0.0360919 -0.0204441 
0.00312872 0.0404261 -0.0199264 0.00221103 0.0447602 -0.0194087 0.000794367 0.0496775 -0.0186215 
-0.000632687 0.0546069 -0.0178287 -0.00109149 0.0599913 -0.0167834 -0.00150909 0.0653951 -0.0157273 
-0.000637918 0.0709838 -0.0144494 0.0003173 0.0765846 -0.013157 0.00276609 0.0819282 -0.0116788 
0.00534764 0.0872489 -0.010184 0.00939294 0.0917353 -0.00853681 0.0136046 0.0961268 -0.00687232 
0.0189311 0.0991184 -0.00508166 0.0244132 0.101915 -0.0032734 0.0303685 0.10298 -0.00136042 
0.0364027 0.103757 0.000570013 0.0421373 0.102871 0.00257889 0.0478135 0.10166 0.00460306 
0.0525069 0.0992126 0.00666157 0.0569792 0.0964867 0.00872779 0.0600363 0.0930816 0.0107564 
0.0627305 0.0895024 0.0127754 0.0638735 0.0856763 0.0146531 0.0645675 0.0817788 0.0164899 
0.063842 0.077809 0.0180578 0.0626561 0.0738156 0.0195384 0.0604 0.0697047 0.020624 
0.0577574 0.0655514 0.0215669 0.054541 0.0611769 0.0220333 0.051095 0.056714 0.0223091 
0.0476023 0.0520343 0.0221099 0.0440889 0.047259 0.0217011 0.0409473 0.0424308 0.0209038 
0.00814673 0.0346011 -0.0218971 0.00735009 0.0385299 -0.0214678 0.00655345 0.0424588 -0.0210385 
0.00534333 0.0468343 -0.0203173 0.00412461 0.0512191 -0.01959 0.00377824 0.0559181 -0.0185789 
0.00346899 0.0606305 -0.0175558 0.00428946 0.0654168 -0.0162734 0.00518361 0.0702079 -0.014974 
0.00735673 0.0747142 -0.0134494 0.00964352 0.0791951 -0.0119047 0.013164 0.0829542 -0.0101705 
0.0168247 0.0866314 -0.00841466 0.0214242 0.0891843 -0.0065012 0.0261548 0.0915805 -0.00456573 
0.0313038 0.0926396 -0.00250122 0.0365225 0.093476 -0.000415205 0.041527 0.0930556 0.00176793 
0.0464898 0.0923901 0.00397002 0.0506463 0.0908028 0.00622181 0.0546215 0.0890082 0.00848479 
0.0573588 0.0867075 0.0107207 0.0597788 0.084277 0.0129496 0.0607489 0.0816314 0.0150335 
0.0612992 0.0789234 0.0170755 0.0604341 0.0760477 0.0188145 0.05911 0.0731174 0.0204553 
0.056667 0.069861 0.0216258 0.0538199 0.0664869 0.0226264 0.050374 0.0626098 0.0230432 
0.0466885 0.0585316 0.0232266 0.0430068 0.053963 0.022828 0.0393268 0.0491782 0.0221727 
0.0361351 0.0441566 0.0210582 0.0118926 0.0328523 -0.0231347 0.0111925 0.0363923 -0.022781 
0.0104925 0.0399324 -0.0224274 0.00944143 0.0438052 -0.0217614 0.00838304 0.0476849 -0.0210889 
0.0081093 0.0517669 -0.0201042 0.00786894 0.0558575 -0.0191063 0.00862243 0.0599407 -0.0178152 
0.00944074 0.0640233 -0.016505 0.0113634 0.0678128 -0.0149336 0.0133842 0.0715762 -0.0133391 
0.0164594 0.0747246 -0.0115201 0.0196544 0.0778032 -0.00967574 0.0236588 0.0799949 -0.00764225 
0.0277761 0.082063 -0.00558238 0.0322823 0.083126 -0.00336529 0.0368532 0.0840216 -0.001122 
0.0412912 0.0840087 0.00124578 0.0457032 0.0838186 0.00363783 0.0494573 0.0829936 0.00610872 
0.0530634 0.0820258 0.00859735 0.0555669 0.0807369 0.011087 0.0577876 0.0793655 0.013577 
0.0586072 0.0778514 0.015935 0.0590214 0.0762959 0.0182548 0.0579625 0.0745191 0.0202436 
0.056426 0.0726705 0.022125 0.0536629 0.0702987 0.0234436 0.0504567 0.0677379 0.0245589 
0.0465979 0.0643624 0.0249425 0.0424779 0.0606609 0.0250332 0.0384315 0.0561522 0.0243901 
0.0344176 0.0512873 0.0234231 0.0310619 0.045983 0.0219003 0.0152033 0.0307871 -0.0241079 
0.0145699 0.0339584 -0.0238143 0.0139365 0.0371298 -0.0235207 0.0129862 0.0405479 -0.0228967 
0.0120292 0.043971 -0.0222657 0.0117793 0.0475199 -0.0212978 0.0115594 0.0510741 -0.0203156 
0.0122259 0.0545761 -0.0190108 0.0129502 0.0580746 -0.017685 0.0146534 0.0612951 -0.0160664 
0.0164436 0.0644909 -0.0144219 0.0191711 0.0671717 -0.0125213 0.0220051 0.069794 -0.0105916 
0.0255761 0.0717195 -0.00844154 0.0292499 0.0735477 -0.00626069 0.0333137 0.0746273 -0.00388973 
0.0374426 0.075582 -0.00148708 0.0415147 0.0759049 0.00107806 0.0455758 0.0761045 0.0036749 
0.0490926 0.0759215 0.00639656 0.0524869 0.0756523 0.0091463 0.0548616 0.0752615 0.0119469 
0.056975 0.0748394 0.0147605 0.057672 0.0743966 0.0174759 0.0579591 0.0739479 0.0201628 
0.05664 0.0732761 0.0224978 0.0548 0.072532 0.0247186 0.0515532 0.0710817 0.0262629 
0.0477984 0.0693763 0.027563 0.0433014 0.0665073 0.0279331 0.0385076 0.0631729 0.0279312 
0.033881 0.058661 0.026988 0.029328 0.0536296 0.0256296 0.0256685 0.0479328 0.0235865 
0.018214 0.0285889 -0.0248478 0.0176329 0.0314114 -0.0246029 0.0170518 0.0342338 -0.0243579 
0.0161763 0.0372311 -0.0237671 0.0152948 0.0402319 -0.0231691 0.0150512 0.0432976 -0.0222128 
0.0148347 0.046366 -0.0212412 0.015414 0.0493504 -0.0199214 0.0160451 0.0523293 -0.0185788 
0.0175539 0.0550498 -0.0169152 0.0191408 0.0577473 -0.0152231 0.0215764 0.0600193 -0.0132451 
0.0241085 0.062243 -0.0112346 0.0273313 0.0639327 -0.00897169 0.0306505 0.0655479 -0.00667354 
0.0343789 0.0666321 -0.00414802 0.0381754 0.0676278 -0.0015846 0.041999 0.0682315 0.00118916 
0.0458278 0.0687587 0.00400397 0.0492249 0.0691353 0.00700743 0.0525249 0.069478 0.0100533 
0.0548773 0.0699057 0.0132278 0.0569866 0.0703553 0.0164353 0.0576303 0.0709436 0.019613 
0.0578498 0.0715721 0.0227822 0.0562571 0.0720255 0.025602 0.0540767 0.0724221 0.0283085 
0.0502126 0.0719479 0.0302048 0.0457406 0.0711594 0.0318086 0.0403775 0.0688162 0.0322079 
0.0346581 0.0658511 0.0321255 0.0292263 0.0612779 0.0308055 0.0239215 0.0559953 0.0289396 
0.0198312 0.049807 0.0262168 0.0208247 0.0262136 -0.0252769 0.0202767 0.0287134 -0.0250653 
0.0197287 0.0312132 -0.0248537 0.0188938 0.033835 -0.0242845 0.0180528 0.0364592 -0.0237079 
0.0177924 0.0391082 -0.0227562 0.0175567 0.0417582 -0.0217885 0.0180481 0.0443099 -0.0204518 
0.018587 0.0468552 -0.0190911 0.019935 0.0491675 -0.0173853 0.0213549 0.0514592 -0.0156489 
0.0235732 0.0534011 -0.0135991 0.0258821 0.0553032 -0.0115137 0.0288705 0.0567977 -0.00914298 
0.0319536 0.0582353 -0.00673245 0.0354888 0.0593085 -0.00405145 0.0390994 0.0603209 -0.00132537 
0.0428307 0.0611322 0.00167204 0.0465857 0.0619042 0.00472239 0.0500201 0.0627306 0.00804904 
0.0533824 0.0635692 0.0114379 0.055854 0.0647096 0.0150702 0.0580973 0.0659274 0.018765 
0.05878 0.0674931 0.0225451 0.0590111 0.0691595 0.0263499 0.0571271 0.0707647 0.0298395 
0.0545571 0.0723501 0.0332268 0.0498976 0.0729252 0.0356435 0.0444836 0.0731355 0.0377096 
0.0379504 0.0713436 0.038195 0.0309695 0.0687509 0.0380481 0.024433 0.0640392 0.0362491 
0.0180925 0.0583925 0.0337211 0.0134021 0.0515805 0.0301061 0.0231891 0.0238006 -0.0254753 
0.0226658 0.0259969 -0.0252874 0.0221426 0.0281932 -0.0250995 0.0213339 0.0304665 -0.0245453 
0.0205193 0.0327415 -0.0239833 0.0202348 0.0350084 -0.0230332 0.0199727 0.0372749 -0.0220666 
0.0203801 0.039433 -0.0207139 0.0208311 0.0415839 -0.0193361 0.0220368 0.0435253 -0.0175922 
0.0233095 0.045448 -0.0158157 0.0253455 0.047085 -0.0137003 0.0274682 0.0486895 -0.0115464 
0.0302735 0.049991 -0.00907405 0.0331741 0.0512503 -0.00655731 0.0365819 0.0522817 -0.00372375 
0.0400743 0.0532751 -0.000837385 0.0437936 0.0542252 0.00239007 0.0475572 0.0551669 0.00568408 
0.0511271 0.0563395 0.00936099 0.0546535 0.057564 0.013124 0.0573629 0.0592936 0.0172827 
0.0598627 0.0611527 0.0215427 0.0607013 0.0635848 0.0260631 0.0610591 0.0661826 0.0306588 
0.0589264 0.0688837 0.0350355 0.055986 0.0716182 0.0393412 0.0504093 0.0732499 0.0425081 
0.0438806 0.0744833 0.0452636 0.0359019 0.0732545 0.0459281 0.0273432 0.0710407 0.0457561 
0.0194279 0.0661625 0.0433504 0.0117965 0.0601088 0.0399592 0.00638293 0.0526477 0.0351898 
0.0251961 0.021333 -0.0253394 0.0246855 0.0232534 -0.0251612 0.0241749 0.0251738 -0.024983 
0.0233721 0.0271382 -0.0244338 0.0225632 0.0291034 -0.023877 0.0222438 0.0310384 -0.0229241 
0.0219452 0.0329721 -0.0219544 0.0222739 0.0347932 -0.0205869 0.0226434 0.0366069 -0.0191933 
0.0237336 0.038231 -0.0174173 0.0248877 0.0398383 -0.0156072 0.0267925 0.0412071 -0.013435 
0.0287825 0.0425489 -0.0112217 0.0314792 0.0436606 -0.0086568 0.0342746 0.0447403 -0.0060428 
0.0376505 0.0456852 -0.00306091 0.0411231 0.0466078 -1.77014e-05 0.0449465 0.0475972 0.00344909 
0.0488383 0.0485997 0.00699854 0.0526862 0.0499683 0.0110649 0.0565243 0.0514192 0.0152476 
0.0596431 0.0535589 0.0200317 0.0625776 0.0558752 0.0249698 0.0637414 0.0590126 0.0304305 
0.0643927 0.0623877 0.0360423 0.0620732 0.0661032 0.0416214 0.0587903 0.0699292 0.0471899 