# vtk DataFile Version 3.0
vtk output
ASCII
DATASET RECTILINEAR_GRID
FIELD FieldData 2
base_index 1 3 int
0 0 68 
avtOriginalBounds 1 6 double
-10 -3.33333 -10 -3.33333 3.33333 10 
DIMENSIONS 34 34 34
X_COORDINATES 34 float
-10 -9.79798 -9.59596 -9.39394 -9.19192 -8.9899 -8.78788 -8.58586 -8.38384 
-8.18182 -7.9798 -7.77778 -7.57576 -7.37374 -7.17172 -6.9697 -6.76768 -6.56566 
-6.36364 -6.16162 -5.9596 -5.75758 -5.55556 -5.35354 -5.15152 -4.9495 -4.74747 
-4.54545 -4.34343 -4.14141 -3.93939 -3.73737 -3.53535 -3.33333 
Y_COORDINATES 34 float
-10 -9.79798 -9.59596 -9.39394 -9.19192 -8.9899 -8.78788 -8.58586 -8.38384 
-8.18182 -7.9798 -7.77778 -7.57576 -7.37374 -7.17172 -6.9697 -6.76768 -6.56566 
-6.36364 -6.16162 -5.9596 -5.75758 -5.55556 -5.35354 -5.15152 -4.9495 -4.74747 
-4.54545 -4.34343 -4.14141 -3.93939 -3.73737 -3.53535 -3.33333 
Z_COORDINATES 34 float
3.33333 3.53535 3.73737 3.93939 4.14141 4.34343 4.54545 4.74747 4.94949 
5.15152 5.35354 5.55556 5.75758 5.9596 6.16162 6.36364 6.56566 6.76768 
6.9697 7.17172 7.37374 7.57576 7.77778 7.9798 8.18182 8.38384 8.58586 
8.78788 8.9899 9.19192 9.39394 9.59596 9.79798 10 
POINT_DATA 39304
FIELD FieldData 1
grad 3 39304 float
0.0505246 0.0968819 -0.0323357 0.0479543 0.100623 -0.0329775 0.045384 0.104364 -0.0336193 
0.0397722 0.107301 -0.033295 0.034097 0.110221 -0.0329505 0.0275427 0.112113 -0.0313907 
0.0209509 0.113961 -0.0297792 0.013779 0.11478 -0.0268489 0.00656938 0.115531 -0.0238325 
-0.00101 0.115495 -0.0195576 -0.0086222 0.115389 -0.0151707 -0.0165705 0.114904 -0.00969496 
-0.0245569 0.114375 -0.0040955 -0.0330012 0.113905 0.00242747 -0.0415094 0.113444 0.0090793 
-0.0505848 0.113372 0.0166394 -0.0597546 0.113366 0.0243508 -0.0692661 0.113872 0.0332353 
-0.0788442 0.114478 0.0423487 -0.0877644 0.115461 0.0531438 -0.0965366 0.116529 0.0643172 
-0.102596 0.117635 0.0773679 -0.10796 0.11875 0.0908999 -0.108257 0.11961 0.104799 
-0.107087 0.120396 0.118805 -0.100723 0.120951 0.128946 -0.0926742 0.121431 0.137833 
-0.0834241 0.121639 0.138989 -0.0737401 0.121749 0.137355 -0.0681125 0.120756 0.129991 
-0.0641073 0.119321 0.120337 -0.0657662 0.115718 0.11098 -0.0699239 0.11116 0.101753 
-0.0770643 0.104141 0.0969765 0.0542656 0.0966749 -0.0377867 0.0514921 0.100516 -0.0389007 
0.0487186 0.104357 -0.0400148 0.0426439 0.107362 -0.040037 0.0365004 0.11035 -0.0400364 
0.0294121 0.112256 -0.0386294 0.0222837 0.114116 -0.0371625 0.0146249 0.114897 -0.0341727 
0.00693155 0.115607 -0.0310836 -0.000978197 0.115515 -0.0265818 -0.00890714 0.115352 -0.0219543 
-0.0169668 0.114858 -0.0161752 -0.0250412 0.114325 -0.0102651 -0.033383 0.113978 -0.00346427 
-0.041762 0.113656 0.00346088 -0.0505924 0.113938 0.0111961 -0.059498 0.114321 0.0190662 
-0.0687438 0.115525 0.0280024 -0.078056 0.116889 0.0371465 -0.0868245 0.119022 0.0479382 
-0.0954706 0.121328 0.0591006 -0.10156 0.124067 0.072258 -0.106994 0.126916 0.0859269 
-0.107428 0.129694 0.100168 -0.106415 0.132451 0.114575 -0.100216 0.134657 0.125034 
-0.0923348 0.136685 0.134214 -0.0834772 0.137634 0.135148 -0.0742672 0.138194 0.133104 
-0.0696002 0.136902 0.125173 -0.0667505 0.134869 0.114887 -0.0699267 0.130447 0.105483 
-0.0757614 0.124971 0.0964676 -0.084573 0.117289 0.092733 0.0580065 0.0964679 -0.0432376 
0.0550298 0.100409 -0.044824 0.0520532 0.104351 -0.0464103 0.0455156 0.107424 -0.0467789 
0.0389037 0.110479 -0.0471222 0.0312816 0.1124 -0.045868 0.0236165 0.114272 -0.0445458 
0.0154708 0.115014 -0.0414966 0.00729372 0.115683 -0.0383347 -0.000946394 0.115535 -0.0336059 
-0.00919207 0.115315 -0.0287379 -0.017363 0.114811 -0.0226553 -0.0255255 0.114275 -0.0164347 
-0.0337647 0.11405 -0.00935599 -0.0420146 0.113868 -0.00215752 -0.0506 0.114504 0.00575277 
-0.0592413 0.115276 0.0137817 -0.0682215 0.117178 0.0227695 -0.0772678 0.119301 0.0319444 
-0.0858845 0.122584 0.0427327 -0.0944047 0.126127 0.053884 -0.100524 0.130499 0.0671481 
-0.106027 0.135082 0.0809539 -0.106599 0.139778 0.0955367 -0.105744 0.144505 0.110344 
-0.0997095 0.148363 0.121123 -0.0919954 0.151939 0.130594 -0.0835304 0.153629 0.131306 
-0.0747942 0.154638 0.128854 -0.071088 0.153048 0.120355 -0.0693937 0.150417 0.109437 
-0.0740872 0.145176 0.0999863 -0.0815989 0.138782 0.0911824 -0.0920817 0.130437 0.0884896 
0.0621442 0.0950583 -0.0498671 0.0589324 0.0991504 -0.0521308 0.0557206 0.103243 -0.0543945 
0.0486346 0.106412 -0.0552842 0.0414679 0.109563 -0.0561452 0.033206 0.111477 -0.055146 
0.0248976 0.11334 -0.0540676 0.016195 0.113973 -0.050979 0.00746665 0.114526 -0.0477592 
-0.00107559 0.114232 -0.0427765 -0.00960125 0.113862 -0.037637 -0.0177066 0.113296 -0.0312451 
-0.0257642 0.112707 -0.0247109 -0.0335393 0.112658 -0.0174507 -0.0412749 0.112684 -0.0100892 
-0.0490409 0.113914 -0.00229674 -0.056812 0.115344 0.00556751 -0.0647322 0.118454 0.0139823 
-0.0726814 0.121893 0.0225046 -0.0802135 0.127189 0.0321237 -0.0876519 0.132904 0.0419895 
-0.0930341 0.140154 0.0534142 -0.0978892 0.147798 0.0652386 -0.0985792 0.155897 0.0774912 
-0.0980634 0.164128 0.0898677 -0.0933639 0.170959 0.0985311 -0.0873075 0.177335 0.10599 
-0.0811746 0.180445 0.105864 -0.075014 0.182375 0.102998 -0.0738254 0.18042 0.0954369 
-0.0746254 0.17691 0.0859971 -0.0812072 0.170443 0.078814 -0.0903398 0.162673 0.0726265 
-0.101765 0.153498 0.0727549 0.0662902 0.0936237 -0.0565211 0.0628426 0.0978676 -0.0594665 
0.0593949 0.102111 -0.0624118 0.0517588 0.105378 -0.0638261 0.0440354 0.108624 -0.0652085 
0.0351316 0.110533 -0.0644664 0.0261776 0.112385 -0.0636339 0.0169166 0.112908 -0.0605062 
0.00763563 0.113344 -0.0572289 -0.00120815 0.112901 -0.0519916 -0.010013 0.11238 -0.0465802 
-0.0180491 0.11175 -0.0398788 -0.0259979 0.111107 -0.0330308 -0.0333012 0.111235 -0.0255912 
-0.0405145 0.111472 -0.018069 -0.0474492 0.1133 -0.0104005 -0.0543375 0.115393 -0.00270767 
-0.0611811 0.119723 0.00512121 -0.0680159 0.124489 0.0129766 -0.074444 0.131817 0.0214022 
-0.0807806 0.139722 0.029956 -0.0854101 0.149877 0.0395008 -0.0896019 0.160609 0.0492996 
-0.0904092 0.172143 0.0591663 -0.0902369 0.183908 0.0690527 -0.0868967 0.193739 0.0755503 
-0.082529 0.202942 0.080949 -0.0787686 0.207486 0.079972 -0.0752274 0.210348 0.0766927 
-0.0765888 0.208025 0.0701001 -0.0799111 0.20363 0.0621822 -0.0883889 0.19593 0.0573152 
-0.0991411 0.186774 0.0537942 -0.111494 0.176766 0.0567809 0.0706358 0.0898403 -0.0640587 
0.0669301 0.094089 -0.0678983 0.0632244 0.0983377 -0.0717379 0.0549682 0.101586 -0.0738617 
0.0466172 0.104813 -0.0759496 0.0369729 0.106632 -0.0755616 0.0272737 0.108391 -0.0750681 
0.0173835 0.108746 -0.0718898 0.00748088 0.10901 -0.0685363 -0.00164763 0.108371 -0.0629648 
-0.0107073 0.107652 -0.0571962 -0.0185299 0.106892 -0.0501152 -0.0262119 0.106126 -0.0428852 
-0.0327515 0.106296 -0.0352846 -0.0391317 0.106596 -0.0276323 -0.0447805 0.108739 -0.0202701 
-0.0503074 0.111189 -0.0129564 -0.0554517 0.116212 -0.0061599 -0.0605213 0.121737 0.000535621 
-0.0651112 0.13023 0.00689827 -0.069593 0.139391 0.013186 -0.0728492 0.1512 0.0193786 
-0.0757911 0.163687 0.0255467 -0.0766403 0.177178 0.0310003 -0.0768837 0.190958 0.0362471 
-0.0757043 0.20258 0.0386941 -0.0740633 0.213502 0.040233 -0.0740549 0.219141 0.0377941 
-0.074636 0.222871 0.0339187 -0.0796281 0.220838 0.0292813 -0.0863846 0.216498 0.0243392 
-0.096862 0.208789 0.0234667 -0.108981 0.199594 0.0243896 -0.121395 0.190034 0.0314393 
0.0749899 0.0859569 -0.0716338 0.0710252 0.0902042 -0.0763768 0.0670605 0.0944515 -0.0811197 
0.0581812 0.0976758 -0.0839607 0.0491995 0.100879 -0.0867621 0.0388107 0.102605 -0.0867322 
0.0283619 0.104268 -0.0865818 0.0178395 0.104453 -0.0833522 0.00731236 0.104541 -0.0799218 
-0.00210017 0.103705 -0.0740127 -0.0114136 0.102787 -0.0678833 -0.0190166 0.101893 -0.0604198 
-0.0264252 0.101003 -0.0528048 -0.0321886 0.101207 -0.045044 -0.0377224 0.101564 -0.0372629 
-0.042066 0.10401 -0.0302149 -0.0462112 0.106804 -0.023289 -0.0496297 0.112498 -0.0175439 
-0.0529064 0.118758 -0.0120293 -0.0556267 0.128379 -0.00776651 -0.0582218 0.138756 -0.00378543 
-0.0600783 0.152165 -0.00100771 -0.0617454 0.166351 0.00146146 -0.0626332 0.181736 0.00241573 
-0.0632955 0.197467 0.00293148 -0.0643108 0.210829 0.00124758 -0.0654407 0.223422 -0.00114972 
-0.069243 0.230141 -0.00507662 -0.0740104 0.234738 -0.00955587 -0.0826792 0.23302 -0.012196 
-0.0929087 0.228777 -0.0141006 -0.10539 0.221111 -0.0109072 -0.118865 0.211935 -0.00546476 
-0.131303 0.202877 0.00569908 0.0791434 0.0790959 -0.0793719 0.07492 0.0830846 -0.0851678 
0.0706967 0.0870733 -0.0909637 0.0611754 0.0900726 -0.0946626 0.0515439 0.0930514 -0.0983176 
0.040367 0.0945683 -0.0987127 0.0291245 0.096023 -0.0989689 0.0179392 0.096008 -0.0956533 
0.00675763 0.0958971 -0.0921047 -0.00292017 0.0948882 -0.0857575 -0.0124643 0.0937995 -0.0791616 
-0.0197677 0.0927842 -0.0712142 -0.0268164 0.0917773 -0.0631133 -0.0316734 0.0919185 -0.0551359 
-0.0362244 0.0922198 -0.0471757 -0.0390993 0.0946429 -0.0404448 -0.0416947 0.0974197 -0.0339189 
-0.043208 0.103089 -0.0292876 -0.0445101 0.109324 -0.025026 -0.0451905 0.11886 -0.0229804 
-0.045731 0.129139 -0.0214334 -0.0460618 0.142355 -0.0222253 -0.0463388 0.156325 -0.023617 
-0.0472041 0.171444 -0.0273186 -0.0482397 0.186898 -0.0316889 -0.0514401 0.200142 -0.0376743 
-0.0553426 0.212671 -0.0441834 -0.0629622 0.219745 -0.0498124 -0.071924 0.224849 -0.0551234 
-0.0842027 0.224126 -0.0558823 -0.0978082 0.221074 -0.0548203 -0.112019 0.214982 -0.0475456 
-0.126496 0.207549 -0.03753 -0.138445 0.200506 -0.0223817 0.0832837 0.0720407 -0.0871205 
0.0788018 0.075754 -0.0939792 0.0743198 0.0794673 -0.100838 0.0641554 0.0822287 -0.105404 
0.0538727 0.0849702 -0.109922 0.041905 0.0862703 -0.110746 0.0298657 0.0875091 -0.111413 
0.0180155 0.0872925 -0.108009 0.00617772 0.086981 -0.104339 -0.00376414 0.0858009 -0.0975477 
-0.0135374 0.0845436 -0.0904784 -0.020536 0.0834073 -0.0820405 -0.0272193 0.0822847 -0.0734472 
-0.0311612 0.0823564 -0.0652494 -0.0347207 0.0825948 -0.0571068 -0.0361161 0.0849738 -0.0506934 
-0.0371509 0.0877097 -0.0445682 -0.0367472 0.0933094 -0.0410548 -0.0360628 0.099468 -0.0380509 
-0.0346922 0.108841 -0.0382301 -0.0331671 0.118936 -0.0391255 -0.0319641 0.131843 -0.0434971 
-0.0308436 0.14547 -0.04876 -0.0316824 0.160185 -0.0571278 -0.0330884 0.175215 -0.0663942 
-0.0384732 0.188221 -0.0766921 -0.0451484 0.200571 -0.0873246 -0.0565855 0.207953 -0.0946695 
-0.0697423 0.213541 -0.100827 -0.0856265 0.213858 -0.0997124 -0.102602 0.212067 -0.0956885 
-0.118523 0.207649 -0.0843315 -0.13398 0.202072 -0.0697393 -0.145407 0.197142 -0.050615 
0.0865985 0.0617856 -0.0938469 0.0818926 0.0648787 -0.101741 0.0771867 0.0679717 -0.109635 
0.0664518 0.070221 -0.115067 0.0555913 0.0724526 -0.120449 0.0429097 0.0733949 -0.121702 
0.0301507 0.0742823 -0.12278 0.0177085 0.0738735 -0.119269 0.00528703 0.0733802 -0.115459 
-0.00486205 0.0721414 -0.108196 -0.0148091 0.0708363 -0.100626 -0.021486 0.0696997 -0.0916737 
-0.0277914 0.0685821 -0.0825641 -0.0308737 0.0686018 -0.0741039 -0.0335063 0.0687802 -0.0657343 
-0.0335824 0.0709186 -0.0595211 -0.0332325 0.0733837 -0.0536673 -0.0311988 0.0783951 -0.0509847 
-0.0288365 0.0839033 -0.0489209 -0.0258053 0.0921802 -0.0507312 -0.0226235 0.10108 -0.0534132 
-0.0202351 0.112312 -0.0603165 -0.0180501 0.124143 -0.0683021 -0.0188551 0.136821 -0.0798549 
-0.0205257 0.149745 -0.0924403 -0.0274388 0.161042 -0.105627 -0.0360521 0.171811 -0.11901 
-0.0501079 0.178748 -0.127522 -0.0661288 0.184302 -0.134276 -0.084406 0.185917 -0.13194 
-0.103586 0.185956 -0.125967 -0.120479 0.184186 -0.111927 -0.136364 0.181617 -0.094329 
-0.147124 0.17981 -0.0727176 0.0898398 0.0512462 -0.100482 0.084913 0.0536883 -0.109409 
0.0799863 0.0561304 -0.118336 0.0686873 0.0578432 -0.124635 0.0572557 0.0595407 -0.13088 
0.043867 0.0601126 -0.132562 0.0303952 0.0606366 -0.13405 0.0173674 0.0600365 -0.130431 
0.00436871 0.0593631 -0.126479 -0.00598253 0.0580755 -0.118743 -0.0160984 0.0567333 -0.11067 
-0.0224522 0.0556071 -0.101201 -0.0283785 0.0545054 -0.0915729 -0.0306061 0.0544747 -0.0828465 
-0.0323176 0.0545934 -0.074246 -0.0310887 0.0564737 -0.0682225 -0.0293698 0.0586476 -0.0626285 
-0.0257315 0.0630245 -0.0607513 -0.0217187 0.0678312 -0.0595993 -0.0170616 0.0749295 -0.0629879 
-0.0122596 0.0825435 -0.0673982 -0.00871677 0.0919803 -0.07674 -0.00549688 0.101885 -0.0873463 
-0.00626749 0.112381 -0.101952 -0.00819326 0.12305 -0.117716 -0.0165763 0.132506 -0.133666 
-0.0270536 0.141569 -0.149676 -0.0436212 0.147996 -0.159307 -0.0623882 0.153471 -0.166636 
-0.0829504 0.156406 -0.163135 -0.104231 0.158326 -0.155303 -0.122031 0.159289 -0.138706 
-0.138296 0.159831 -0.118241 -0.148376 0.161237 -0.0942751 0.0915265 0.0380375 -0.104705 
0.0864499 0.0394964 -0.114364 0.0813733 0.0409554 -0.124022 0.0696943 0.0418609 -0.130955 
0.0578779 0.0427548 -0.137832 0.0440224 0.0428212 -0.139842 0.0300802 0.0428524 -0.141645 
0.0166902 0.0420881 -0.137967 0.00333628 0.0412719 -0.133932 -0.0070872 0.0400803 -0.125879 
-0.0172501 0.0388553 -0.117468 -0.0232976 0.0379136 -0.107657 -0.0288773 0.037004 -0.0976858 
-0.0304404 0.0370402 -0.0887819 -0.0314431 0.0372084 -0.0800268 -0.029286 0.0388316 -0.0740899 
-0.0266023 0.0406973 -0.0686227 -0.0219203 0.044295 -0.0671294 -0.0168485 0.0482306 -0.0664117 
-0.0112456 0.0538621 -0.0704689 -0.00552317 0.0598752 -0.0756005 -0.0014027 0.0671238 -0.0858065 
0.00230702 0.0746892 -0.0973136 0.00152181 0.0825751 -0.112755 -0.000564573 0.0905537 -0.129335 
-0.00953524 0.0977726 -0.145766 -0.0207387 0.104745 -0.162149 -0.0381064 0.110364 -0.171714 
-0.0577001 0.115495 -0.178819 -0.0787668 0.119621 -0.17485 -0.100423 0.123346 -0.166453 
-0.118114 0.127058 -0.149363 -0.134056 0.130763 -0.128439 -0.143464 0.135395 -0.104346 
0.0930366 0.0245255 -0.108654 0.0878182 0.0249635 -0.11901 0.0825998 0.0254015 -0.129366 
0.0705617 0.025469 -0.136906 0.0583816 0.0255287 -0.144388 0.0440866 0.0250743 -0.146714 
0.0297017 0.0245979 -0.148821 0.0159748 0.0236725 -0.14509 0.00229089 0.0227177 -0.140979 
-0.00819007 0.0216385 -0.132627 -0.0183863 0.0205482 -0.123897 -0.0241292 0.0198108 -0.113763 
-0.029366 0.0191135 -0.10347 -0.0302864 0.01923 -0.0943982 -0.0306044 0.0194601 -0.0854973 
-0.0275619 0.0208263 -0.0796353 -0.0239592 0.0223818 -0.0742796 -0.0182973 0.0251838 -0.0731225 
-0.0122337 0.028229 -0.0727846 -0.00576224 0.0323609 -0.0774071 0.000800967 0.0367373 -0.0831456 
0.00543359 0.0417531 -0.0940369 0.00957118 0.0469329 -0.106249 0.00876581 0.0521591 -0.122274 
0.00652956 0.0573988 -0.139402 -0.00292846 0.062335 -0.156055 -0.0147287 0.0671728 -0.172554 
-0.0327019 0.0719511 -0.181919 -0.0529043 0.0767078 -0.188709 -0.0742733 0.0820107 -0.184352 
-0.0961088 0.087532 -0.175536 -0.113575 0.093993 -0.158189 -0.129115 0.100869 -0.137079 
-0.137851 0.108727 -0.113113 0.0924456 0.00968844 -0.1092 0.08718 0.00892721 -0.119719 
0.0819143 0.00816598 -0.130239 0.0697819 0.0072427 -0.137945 0.0575066 0.00631604 -0.145593 
0.0431412 0.00525424 -0.148046 0.0286869 0.00418668 -0.150277 0.0149715 0.00309803 -0.146618 
0.00130422 0.00200801 -0.142574 -0.0090325 0.00110722 -0.134263 -0.0190731 0.000223253 -0.125572 
-0.0245212 -0.000209183 -0.115489 -0.0294473 -0.000590307 -0.105248 -0.029949 -0.000280424 -0.096254 
-0.0298333 0.000125878 -0.0874344 -0.0263189 0.00136609 -0.0816517 -0.022238 0.00274529 -0.0763753 
-0.0161585 0.00493895 -0.0752247 -0.00968912 0.00729153 -0.0748792 -0.0029695 0.0102353 -0.0792985 
0.00380642 0.0133121 -0.0847898 0.00847706 0.0165992 -0.0950712 0.0126079 0.0199402 -0.106581 
0.0117839 0.0231914 -0.121435 0.00952567 0.0264166 -0.137257 0.000339154 0.029736 -0.152369 
-0.0110944 0.0330859 -0.16725 -0.0282609 0.0373158 -0.17547 -0.0474978 0.0418635 -0.181286 
-0.067702 0.0480352 -0.176993 -0.0882932 0.0548565 -0.168656 -0.104688 0.0632878 -0.152576 
-0.119232 0.0724295 -0.133081 -0.127303 0.0826025 -0.110953 0.0915615 -0.00533354 -0.109272 
0.0862617 -0.00731886 -0.11988 0.080962 -0.00930417 -0.130488 0.0687723 -0.0112395 -0.138298 
0.0564392 -0.0131738 -0.14605 0.0420549 -0.0148551 -0.148603 0.0275834 -0.0165255 -0.150935 
0.013928 -0.0177777 -0.147364 0.000325739 -0.0190025 -0.143408 -0.00983858 -0.0197156 -0.135185 
-0.0196972 -0.0203833 -0.126583 -0.0248518 -0.0204967 -0.116603 -0.0294717 -0.0205472 -0.106467 
-0.029586 -0.0200281 -0.0975851 -0.0290715 -0.0194296 -0.0888784 -0.025143 -0.0182971 -0.0831758 
-0.0206454 -0.0170756 -0.077974 -0.0142268 -0.0154641 -0.0767839 -0.00743341 -0.0137765 -0.0763767 
-0.000552185 -0.0119774 -0.0804856 0.0063488 -0.0101532 -0.0856107 0.0109913 -0.00852447 -0.0951015 
0.0150547 -0.00694585 -0.105712 0.0142124 -0.00557417 -0.119151 0.01195 -0.00426239 -0.133408 
0.00314085 -0.00246699 -0.146732 -0.00779153 -0.000514724 -0.159753 -0.0239544 0.00320767 -0.166698 
-0.042006 0.00756927 -0.171447 -0.0608408 0.0145669 -0.167281 -0.0799889 0.0226189 -0.159548 
-0.0951938 0.0329119 -0.144949 -0.108659 0.0441934 -0.127319 -0.116067 0.0565537 -0.10727 
0.0884898 -0.0199478 -0.10593 0.0832492 -0.0231072 -0.116075 0.0780085 -0.0262666 -0.12622 
0.0660283 -0.0291877 -0.133674 0.0539076 -0.0321039 -0.141072 0.0398833 -0.034423 -0.143525 
0.025778 -0.0367166 -0.145768 0.0125473 -0.0381982 -0.142414 -0.000626302 -0.0396268 -0.138696 
-0.0103915 -0.0402409 -0.130918 -0.0198537 -0.0407826 -0.12278 -0.0246831 -0.0406437 -0.113303 
-0.0289861 -0.0404274 -0.103674 -0.0288639 -0.0396923 -0.0951932 -0.0281243 -0.0388849 -0.0868731 
-0.0240671 -0.0377243 -0.0813452 -0.0194571 -0.0365048 -0.0762827 -0.0130554 -0.0351466 -0.0749152 
-0.00630411 -0.0337614 -0.0742688 0.000404424 -0.0325161 -0.0776883 0.00710334 -0.0313022 -0.0820226 
0.011538 -0.0304403 -0.0901422 0.0153921 -0.0296687 -0.0992323 0.0146452 -0.029064 -0.110606 
0.0125664 -0.0285076 -0.122641 0.004588 -0.0271955 -0.133674 -0.00530379 -0.0256382 -0.144384 
-0.0197943 -0.0219026 -0.149863 -0.0359454 -0.0173805 -0.153453 -0.0527758 -0.0098455 -0.149558 
-0.069878 -0.0011053 -0.142668 -0.0835276 0.0100946 -0.129949 -0.095654 0.0223798 -0.114658 
-0.102399 0.0357489 -0.0971885 0.0850536 -0.0344941 -0.10202 0.0798876 -0.0388192 -0.111609 
0.0747216 -0.0431444 -0.121199 0.0629951 -0.0470469 -0.12822 0.051132 -0.0509407 -0.135187 
0.0375307 -0.0539006 -0.137507 0.0238555 -0.0568208 -0.13963 0.0111104 -0.0585428 -0.136515 
-0.00157394 -0.0601867 -0.133059 -0.0109022 -0.0607166 -0.125786 -0.0199322 -0.0611474 -0.118175 
-0.0244312 -0.0607672 -0.109267 -0.0284154 -0.0602949 -0.100212 -0.028082 -0.0593427 -0.0921809 
-0.0271461 -0.0583235 -0.0842929 -0.023008 -0.0571121 -0.0789554 -0.0183363 -0.0558686 -0.0740431 
-0.0120108 -0.0547091 -0.0724752 -0.00536255 -0.0535658 -0.07156 0.00111758 -0.0527757 -0.0742269 
0.00755989 -0.052065 -0.0776998 0.0117568 -0.0518215 -0.0843513 0.015378 -0.0516977 -0.0918178 
0.0147455 -0.0516746 -0.101018 0.0128815 -0.0516806 -0.11072 0.00580939 -0.0506782 -0.11938 
-0.0029519 -0.0493487 -0.127702 -0.0156586 -0.0455133 -0.131684 -0.02979 -0.0407729 -0.134099 
-0.0445102 -0.0327486 -0.130499 -0.059466 -0.0234106 -0.124491 -0.0714995 -0.0114628 -0.11372 
-0.0822437 0.00163654 -0.100846 -0.0883256 0.015818 -0.086041 0.0798113 -0.0471943 -0.0956684 
0.0747864 -0.0524672 -0.104358 0.0697615 -0.0577401 -0.113047 0.0584737 -0.062472 -0.119356 
0.0470554 -0.0671926 -0.125615 0.0341376 -0.0707707 -0.127675 0.0211561 -0.0743001 -0.129555 
0.00915881 -0.0763864 -0.126733 -0.00277421 -0.0783786 -0.123603 -0.0114744 -0.0790426 -0.117023 
-0.0198871 -0.0795885 -0.110135 -0.0239707 -0.0791838 -0.102024 -0.0275622 -0.078671 -0.0937734 
-0.0270302 -0.0776184 -0.0863761 -0.0259228 -0.0764905 -0.0790979 -0.0217782 -0.0751677 -0.0740485 
-0.0171273 -0.0738124 -0.0693707 -0.0109615 -0.07256 -0.0676141 -0.00450017 -0.0713277 -0.0664275 
0.00171965 -0.0704448 -0.0683111 0.00788513 -0.0696405 -0.0708855 0.011911 -0.0692358 -0.0760854 
0.0153883 -0.0689335 -0.0819585 0.0150204 -0.0686007 -0.0891527 0.0135395 -0.0682591 -0.0967293 
0.00751039 -0.0667979 -0.103337 6.19754e-06 -0.0649735 -0.10963 -0.0108886 -0.0606652 -0.112382 
-0.0230078 -0.05546 -0.113855 -0.0356841 -0.0471181 -0.110522 -0.0485833 -0.0375215 -0.105266 
-0.0590805 -0.0254582 -0.0961596 -0.0685179 -0.0123067 -0.0853538 -0.0739984 0.00185208 -0.0728951 
0.0742166 -0.0595343 -0.088841 0.0693458 -0.0657124 -0.0965626 0.064475 -0.0718905 -0.104284 
0.0536619 -0.0774221 -0.109827 0.0427251 -0.0829401 -0.115324 0.0305416 -0.0871319 -0.117097 
0.0183051 -0.0912672 -0.118712 0.00710677 -0.093742 -0.116192 -0.00402379 -0.0961085 -0.113403 
-0.0120585 -0.0969492 -0.10755 -0.019818 -0.0976543 -0.101425 -0.0234693 -0.0972672 -0.0941549 
-0.0266538 -0.0967561 -0.0867543 -0.0259258 -0.0956259 -0.0800265 -0.0246518 -0.0944093 -0.0733927 
-0.020515 -0.0929634 -0.0686505 -0.0159011 -0.0914791 -0.0642236 -0.00991138 -0.0900771 -0.0622805 
-0.00365323 -0.0886911 -0.0608222 0.00230005 -0.0876085 -0.0619164 0.00818474 -0.0865941 -0.0635851 
0.0120526 -0.085876 -0.0673366 0.0154033 -0.0852339 -0.0716222 0.0153295 -0.0844176 -0.0768434 
0.0142644 -0.0835509 -0.0823354 0.00930498 -0.0814809 -0.086953 0.00308258 -0.0790206 -0.0912871 
-0.00599482 -0.0741667 -0.0928601 -0.0161032 -0.0684484 -0.0934362 -0.0267486 -0.0598225 -0.0903657 
-0.0376089 -0.0500335 -0.0858367 -0.0465853 -0.0379782 -0.0783398 -0.0547306 -0.0249231 -0.0695336 
-0.0596215 -0.0109499 -0.0593593 0.067398 -0.0693249 -0.0809412 0.0627044 -0.0761572 -0.0876139 
0.0580108 -0.0829895 -0.0942866 0.0477332 -0.089157 -0.0990065 0.0373394 -0.0953106 -0.103686 
0.0259774 -0.100104 -0.105132 0.0145743 -0.104839 -0.106441 0.00428267 -0.107857 -0.10419 
-0.00593645 -0.110763 -0.101706 -0.0131832 -0.112049 -0.0965625 -0.0201657 -0.113192 -0.0911822 
-0.0232552 -0.113104 -0.084755 -0.0259024 -0.112877 -0.0782088 -0.0248476 -0.111857 -0.0721718 
-0.0232761 -0.110727 -0.0662059 -0.019014 -0.109174 -0.0618074 -0.0143034 -0.107551 -0.0576702 
-0.00834413 -0.105812 -0.0556073 -0.00214126 -0.104052 -0.0539491 0.00371279 -0.102399 -0.0543943 
0.00948835 -0.10077 -0.0553127 0.0133688 -0.0992559 -0.057892 0.0167634 -0.0977706 -0.0608973 
0.0170821 -0.0959896 -0.0645876 0.0165105 -0.0941229 -0.0684762 0.0125391 -0.0910883 -0.0716143 
0.00746508 -0.087675 -0.074509 -9.09399e-05 -0.0821236 -0.0752316 -0.00854323 -0.0758001 -0.0751698 
-0.0175518 -0.0669554 -0.0722944 -0.0267828 -0.0571022 -0.0682935 -0.0345516 -0.0453041 -0.0619891 
-0.0416753 -0.032648 -0.0546683 -0.0461199 -0.0192237 -0.0462485 0.0603039 -0.0785419 -0.0728001 
0.0557927 -0.0859719 -0.0784057 0.0512815 -0.0934018 -0.0840112 0.0415532 -0.100168 -0.0878957 
0.0317162 -0.106921 -0.0917444 0.0211954 -0.112313 -0.0928543 0.0106456 -0.117646 -0.0938476 
0.00128485 -0.121242 -0.0918578 -0.00799832 -0.124725 -0.0896734 -0.0144295 -0.126517 -0.0852339 
-0.0206071 -0.12816 -0.0805939 -0.0231057 -0.128435 -0.0750106 -0.0251863 -0.128556 -0.06932 
-0.0237752 -0.127688 -0.0639785 -0.0218769 -0.126683 -0.0586857 -0.0174594 -0.125028 -0.0546391 
-0.0126221 -0.123264 -0.0508003 -0.00666053 -0.121147 -0.0486325 -0.000479661 -0.118962 -0.0467909 
0.0053128 -0.116655 -0.0466184 0.0110179 -0.114322 -0.0468216 0.0149493 -0.111902 -0.0482909 
0.018426 -0.10946 -0.0500849 0.0191595 -0.106606 -0.0523439 0.0190989 -0.103633 -0.0547374 
0.0160971 -0.0995538 -0.0565108 0.0121415 -0.0951159 -0.0580829 0.00604022 -0.0888329 -0.0580289 
-0.000835817 -0.0818835 -0.0573877 -0.00829615 -0.0728347 -0.0546921 -0.0159902 -0.0629461 -0.0511749 
-0.0226218 -0.0514614 -0.0459689 -0.0287847 -0.0392725 -0.0400179 -0.0328153 -0.0264785 -0.0332333 
0.052481 -0.0851948 -0.0647236 0.0481285 -0.093037 -0.0693531 0.043776 -0.100879 -0.0739825 
0.034537 -0.108148 -0.0771091 0.0251963 -0.115404 -0.0802044 0.0154488 -0.121428 -0.0809876 
0.00568405 -0.1274 -0.0816725 -0.00277627 -0.131749 -0.0798629 -0.0111515 -0.135993 -0.0778907 
-0.0167126 -0.13857 -0.0740157 -0.0220235 -0.140999 -0.0699716 -0.0237713 -0.141934 -0.0650917 
-0.0251141 -0.142699 -0.0601169 -0.0230965 -0.142198 -0.055375 -0.0206101 -0.14152 -0.0506655 
-0.0157365 -0.139817 -0.0469435 -0.0104649 -0.137942 -0.0433861 -0.00419605 -0.135329 -0.0411722 
0.00226747 -0.132572 -0.0392205 0.0082633 -0.129371 -0.0385984 0.0141539 -0.126071 -0.0382754 
0.0183109 -0.122476 -0.0389316 0.0220234 -0.118805 -0.0398389 0.0231893 -0.114669 -0.0410726 
0.023618 -0.110398 -0.0424008 0.0213898 -0.105168 -0.0432204 0.0182999 -0.0996272 -0.0438752 
0.0132621 -0.0925876 -0.0432863 0.00752091 -0.0850069 -0.0422483 0.00114663 -0.0757644 -0.0396764 
-0.00548088 -0.0658573 -0.0364909 -0.0113478 -0.0547158 -0.0320575 -0.0168791 -0.0430298 -0.0270735 
-0.0206884 -0.0309273 -0.0214817 0.0444712 -0.0911902 -0.0566636 0.0402713 -0.099397 -0.0603404 
0.0360714 -0.107604 -0.0640171 0.0273065 -0.115349 -0.0664056 0.0184465 -0.123085 -0.0687673 
0.00945486 -0.129751 -0.0692264 0.000457652 -0.136371 -0.0696046 -0.00711004 -0.141519 -0.0679545 
-0.0145845 -0.146571 -0.0661722 -0.0192616 -0.150004 -0.0628259 -0.02369 -0.153292 -0.0593405 
-0.0246458 -0.154963 -0.0551282 -0.0252069 -0.156449 -0.0508332 -0.0225188 -0.156369 -0.0466662 
-0.0193773 -0.15607 -0.0425171 -0.0139704 -0.154333 -0.0391127 -0.00818585 -0.152356 -0.0358323 
-0.00153133 -0.149216 -0.0335874 0.00529295 -0.145849 -0.0315445 0.0115601 -0.141692 -0.0305157 
0.0177019 -0.137358 -0.0297151 0.0221291 -0.132518 -0.0296343 0.0261168 -0.127549 -0.0297381 
0.0277196 -0.122076 -0.0300507 0.0286321 -0.116458 -0.0304237 0.0271273 -0.110051 -0.030395 
0.0248384 -0.103387 -0.0302361 0.0207637 -0.0955848 -0.0291744 0.0160441 -0.0873713 -0.0277866 
0.0106374 -0.0779379 -0.025324 0.00495579 -0.0680165 -0.0224313 -0.000241832 -0.0572259 -0.0186869 
-0.00522594 -0.0460519 -0.0145666 -0.0088634 -0.0346566 -0.010054 0.036029 -0.0949571 -0.0493119 
0.0319158 -0.103425 -0.0521842 0.0278026 -0.111893 -0.0550565 0.0193527 -0.120091 -0.0568193 
0.0108124 -0.128284 -0.058559 0.00238908 -0.135676 -0.0587155 -0.00602925 -0.143034 -0.0588046 
-0.0128442 -0.149191 -0.0572237 -0.0195545 -0.155269 -0.0555339 -0.023352 -0.159872 -0.0525476 
-0.0268906 -0.164344 -0.049446 -0.0268686 -0.167093 -0.0457192 -0.026442 -0.169647 -0.0419213 
-0.0227208 -0.170241 -0.038193 -0.0185399 -0.170561 -0.0344743 -0.0121442 -0.168852 -0.0313315 
-0.00537947 -0.166806 -0.0282847 0.00209289 -0.163003 -0.0260484 0.00970332 -0.158856 -0.0239702 
0.0165524 -0.153499 -0.0226743 0.0232303 -0.14787 -0.0215545 0.02806 -0.141556 -0.0209692 
0.0324159 -0.135067 -0.020521 0.0343872 -0.128128 -0.020203 0.0356683 -0.121059 -0.0199227 
0.0346262 -0.113447 -0.0193177 0.0328306 -0.105658 -0.0186074 0.0293217 -0.0971124 -0.0172252 
0.0251942 -0.0882927 -0.0156004 0.0203255 -0.0786695 -0.0132121 0.0151603 -0.0687249 -0.0105185 
0.010284 -0.0582479 -0.00725496 0.00553497 -0.0475359 -0.00373993 0.00186917 -0.0367932 -7.05593e-06 
0.0274616 -0.098079 -0.0421651 0.023416 -0.106778 -0.0442759 0.0193704 -0.115477 -0.0463867 
0.0111895 -0.124121 -0.0475564 0.00292236 -0.132763 -0.0487065 -0.00498698 -0.140907 -0.0485665 
-0.0128811 -0.149029 -0.0483717 -0.0189837 -0.156255 -0.0468338 -0.0249696 -0.163423 -0.0452083 
-0.0278887 -0.169287 -0.0425331 -0.0305352 -0.175036 -0.0397647 -0.0294817 -0.178964 -0.0364707 
-0.0280076 -0.182685 -0.033117 -0.0231485 -0.184026 -0.0297878 -0.017817 -0.185035 -0.026462 
-0.0103008 -0.183373 -0.0235647 -0.00242045 -0.181267 -0.0207388 0.00599487 -0.17676 -0.0185225 
0.0145146 -0.171786 -0.0164253 0.0220356 -0.165157 -0.0149028 0.0293319 -0.158156 -0.0135096 
0.0346025 -0.150302 -0.0124871 0.0393536 -0.14223 -0.0115596 0.0416735 -0.133787 -0.0106952 
0.0432897 -0.125237 -0.00984905 0.042635 -0.116412 -0.0087464 0.0412437 -0.107499 -0.00756057 
0.0381856 -0.0982145 -0.005902 0.0345256 -0.0887965 -0.00407274 0.0300707 -0.0789839 -0.00174885 
0.0252977 -0.0690134 0.000772877 0.0206419 -0.058839 0.00361581 0.0160376 -0.0485747 0.00660044 
0.0122855 -0.0384689 0.0096403 0.0186102 -0.0993374 -0.0359403 0.0145311 -0.108205 -0.037425 
0.010452 -0.117072 -0.0389097 0.00229715 -0.126164 -0.0395799 -0.00594254 -0.13526 -0.0402332 
-0.0136348 -0.144261 -0.0398076 -0.0213037 -0.153257 -0.0393361 -0.026951 -0.161806 -0.0377551 
-0.0324663 -0.170326 -0.0361017 -0.0345885 -0.177867 -0.033582 -0.0364091 -0.185321 -0.0309852 
-0.034112 -0.190921 -0.0279549 -0.031347 -0.196311 -0.0248754 -0.024835 -0.198774 -0.0218213 
-0.0178002 -0.20083 -0.0187708 -0.00849287 -0.19928 -0.0160756 0.00119319 -0.197128 -0.0134397 
0.0111462 -0.19166 -0.0112869 0.0211512 -0.185545 -0.00922832 0.0296891 -0.177242 -0.00759658 
0.037897 -0.168446 -0.00606087 0.0436619 -0.158715 -0.00477255 0.0488003 -0.148743 -0.00354768 
0.0512858 -0.138625 -0.00233182 0.0530032 -0.128465 -0.00111858 0.0524015 -0.118404 0.000309714 
0.0510476 -0.108375 0.00180775 0.0480405 -0.098393 0.00364686 0.0444363 -0.0884278 0.00560914 
0.0400119 -0.0784525 0.00788357 0.0352594 -0.0684732 0.0102829 0.0305258 -0.0585802 0.0128261 
0.0258006 -0.0487255 0.0154328 0.0217848 -0.0391954 0.017967 0.00966669 -0.0999915 -0.0300146 
0.00552124 -0.109007 -0.030917 0.0013758 -0.118022 -0.0318195 -0.00683161 -0.127563 -0.0320206 
-0.0151236 -0.137115 -0.0322071 -0.0226951 -0.147007 -0.0314994 -0.0302358 -0.156913 -0.0307537 
-0.0355109 -0.166867 -0.0291017 -0.0406382 -0.176824 -0.0273906 -0.0419899 -0.186175 -0.0249757 
-0.043006 -0.195473 -0.0224982 -0.0393966 -0.202906 -0.0196768 -0.0352616 -0.210127 -0.0168163 
-0.0269298 -0.213835 -0.013997 -0.0180124 -0.217053 -0.0111836 -0.00669652 -0.215635 -0.00867661 
0.00501915 -0.213445 -0.00622069 0.0167026 -0.206931 -0.00414531 0.0283798 -0.199573 -0.00214419 
0.0380466 -0.189465 -0.000441309 0.047261 -0.178738 0.00119446 0.0535376 -0.167018 0.00269301 
0.0590609 -0.155045 0.00415637 0.0616524 -0.143197 0.00566043 0.0633953 -0.131385 0.00717627 
0.0627382 -0.12008 0.00887441 0.0613026 -0.108939 0.0106317 0.0582167 -0.0982719 0.0126203 
0.0545348 -0.0877761 0.0146924 0.0500167 -0.0776468 0.0169222 0.0451641 -0.0676641 0.0192151 
0.0402561 -0.0580458 0.0214978 0.0353236 -0.0485882 0.023776 0.0309866 -0.0396142 0.0258654 