# vtk DataFile Version 2.0
vtk output
ASCII
DATASET RECTILINEAR_GRID
DIMENSIONS 34 34 34
X_COORDINATES 34 float
-3.33333 -3.13131 -2.92929 -2.72727 -2.52525 -2.32323 -2.12121 -1.91919 -1.71717 
-1.51515 -1.31313 -1.11111 -0.909091 -0.707071 -0.505051 -0.30303 -0.10101 0.10101 
0.30303 0.50505 0.70707 0.909091 1.11111 1.31313 1.51515 1.71717 1.91919 
2.12121 2.32323 2.52525 2.72727 2.92929 3.13131 3.33333 
Y_COORDINATES 34 float
-10 -9.79798 -9.59596 -9.39394 -9.19192 -8.9899 -8.78788 -8.58586 -8.38384 
-8.18182 -7.9798 -7.77778 -7.57576 -7.37374 -7.17172 -6.9697 -6.76768 -6.56566 
-6.36364 -6.16162 -5.9596 -5.75758 -5.55556 -5.35354 -5.15152 -4.9495 -4.74747 
-4.54545 -4.34343 -4.14141 -3.93939 -3.73737 -3.53535 -3.33333 
Z_COORDINATES 34 float
-3.33333 -3.13131 -2.92929 -2.72727 -2.52525 -2.32323 -2.12121 -1.91919 -1.71717 
-1.51515 -1.31313 -1.11111 -0.909091 -0.707071 -0.505051 -0.30303 -0.10101 0.10101 
0.30303 0.50505 0.70707 0.909091 1.11111 1.31313 1.51515 1.71717 1.91919 
2.12121 2.32323 2.52525 2.72727 2.92929 3.13131 3.33333 
POINT_DATA 39304
VECTORS grad float
-0.014694 0.0695375 -0.00340172 -0.0159979 0.0702264 -0.00443538 -0.0176075 0.0705568 -0.00499785 
-0.0193795 0.0706965 -0.00530999 -0.0213535 0.0702187 -0.00503239 -0.0234448 0.0693823 -0.00441235 
-0.0255586 0.0677191 -0.00309778 -0.0276865 0.0655323 -0.00134334 -0.0295881 0.0623661 0.00118991 
-0.0313334 0.0585245 0.00426026 -0.0325184 0.0535996 0.00816999 -0.033283 0.0478622 0.0127092 
-0.0330312 0.041002 0.0181162 -0.0319512 0.0332269 0.0242302 -0.0292534 0.0244466 0.0311802 
-0.0251244 0.014777 0.0388698 -0.018703 0.0045803 0.0472535 -0.0100807 -0.00612254 0.0563036 
0.00131262 -0.0162592 0.0657623 0.0155926 -0.025806 0.0756467 0.0324698 -0.0330589 0.0855976 
0.0522829 -0.0377187 0.0956236 0.0734654 -0.0382977 0.105595 0.0963283 -0.0338686 0.115498 
0.118193 -0.0244345 0.125702 0.138725 -0.00832709 0.136307 0.154933 0.0123703 0.147766 
0.164869 0.039723 0.160462 0.167033 0.0694624 0.173629 0.156924 0.10297 0.187539 
0.138335 0.133716 0.199499 0.105141 0.159707 0.208097 0.0683581 0.177288 0.211957 
0.0248183 0.179039 0.206898 -0.0140515 0.0699431 -0.00464166 -0.0155247 0.0709157 -0.00581102 
-0.0174396 0.0715272 -0.00644857 -0.0195892 0.0719468 -0.00680361 -0.0220661 0.0717136 -0.00648256 
-0.0247332 0.0711014 -0.00576894 -0.0275255 0.0696078 -0.00425145 -0.0303972 0.0675559 -0.00222485 
-0.0331223 0.0644591 0.000711851 -0.0357464 0.0606415 0.0042762 -0.0378641 0.0556599 0.00883801 
-0.0396022 0.0498053 0.0141479 -0.0403236 0.0427155 0.020521 -0.0402168 0.0346193 0.0277604 
-0.0383602 0.0253516 0.0360727 -0.0349558 0.0150475 0.0453339 -0.0288737 0.00399307 0.0555336 
-0.0202211 -0.00778168 0.0666342 -0.00807975 -0.0192078 0.0782891 0.00769572 -0.0302707 0.0905213 
0.0269899 -0.0391134 0.102727 0.0502618 -0.0454461 0.114903 0.0756575 -0.0475653 0.12672 
0.10366 -0.0445132 0.138096 0.130892 -0.0363081 0.149625 0.157098 -0.0212321 0.161356 
0.17842 -0.00160977 0.174375 0.192663 0.0246047 0.189261 0.197332 0.0531171 0.205462 
0.186886 0.0852581 0.223738 0.165197 0.114783 0.239943 0.124145 0.139802 0.252582 
0.0782131 0.156718 0.258362 0.0230983 0.15838 0.25123 -0.0134089 0.0703487 -0.00588161 
-0.0150516 0.0716049 -0.00718665 -0.0172718 0.0724975 -0.00789929 -0.0197988 0.073197 -0.00829721 
-0.0227787 0.0732085 -0.00793272 -0.0260215 0.0728204 -0.00712552 -0.0294925 0.0714964 -0.00540512 
-0.0331079 0.0695796 -0.00310635 -0.0366566 0.0665521 0.000233798 -0.0401593 0.0627585 0.00429214 
-0.0432098 0.0577202 0.00950603 -0.0459213 0.0517484 0.0155866 -0.0476161 0.044429 0.0229258 
-0.0484824 0.0360117 0.0312907 -0.047467 0.0262566 0.0409651 -0.0447871 0.015318 0.051798 
-0.0390444 0.00340584 0.0638136 -0.0303614 -0.00944081 0.0769648 -0.0174721 -0.0221564 0.0908158 
-0.000201093 -0.0347354 0.105396 0.0215101 -0.0451678 0.119856 0.0482406 -0.0531735 0.134182 
0.0778497 -0.0568328 0.147844 0.110991 -0.0551578 0.160694 0.143592 -0.0481816 0.173547 
0.17547 -0.034137 0.186404 0.201908 -0.0155897 0.200984 0.220456 0.00948633 0.218061 
0.227632 0.036772 0.237295 0.216849 0.0675464 0.259936 0.192059 0.0958495 0.280387 
0.143148 0.119897 0.297067 0.0880682 0.136147 0.304766 0.0213784 0.137721 0.295562 
-0.0117176 0.0705756 -0.00797808 -0.0134803 0.072533 -0.00948075 -0.0160268 0.074127 -0.0103136 
-0.0189895 0.075528 -0.0107907 -0.0225835 0.0761621 -0.0103926 -0.026544 0.0763509 -0.00948636 
-0.0308686 0.075492 -0.00752593 -0.0354237 0.0739695 -0.00489784 -0.0400223 0.0712193 -0.00106405 
-0.0446508 0.0676224 0.00360126 -0.0489333 0.062654 0.00961864 -0.0529563 0.0566572 0.0166501 
-0.0560553 0.0491389 0.025197 -0.0584015 0.0403811 0.0349787 -0.0588554 0.0300027 0.0464218 
-0.0576355 0.0181907 0.0593345 -0.0530331 0.00496919 0.0738626 -0.0451833 -0.00960554 0.0899413 
-0.032275 -0.0245608 0.107052 -0.0140973 -0.0399125 0.125238 0.00978242 -0.0534161 0.143143 
0.0401079 -0.0648306 0.160728 0.0742874 -0.07179 0.17681 0.113197 -0.0732816 0.191047 
0.151625 -0.0694157 0.204424 0.18941 -0.0584063 0.216658 0.220967 -0.0434724 0.230662 
0.243494 -0.0228479 0.247235 0.253037 -0.0008152 0.266903 0.24208 0.0234408 0.29146 
0.214753 0.0455169 0.314141 0.159235 0.0638387 0.333593 0.0964454 0.0762865 0.342177 
0.0199691 0.0776774 0.330303 -0.0100044 0.0707987 -0.0100924 -0.0118862 0.0734661 -0.011794 
-0.0147593 0.0757702 -0.012748 -0.018159 0.0778814 -0.0133049 -0.0223694 0.079146 -0.0128735 
-0.0270505 0.0799191 -0.0118681 -0.0322323 0.0795315 -0.00966688 -0.0377313 0.0784088 -0.00670827 
-0.0433845 0.0759402 -0.00237897 -0.0491439 0.0725434 0.00289566 -0.0546645 0.0676477 0.00971967 
-0.0600061 0.0616277 0.0177057 -0.0645184 0.0539112 0.0274653 -0.068355 0.0448125 0.0386701 
-0.0702914 0.033808 0.0518903 -0.0705468 0.0211177 0.0668934 -0.0671012 0.00657734 0.0839483 
-0.0601027 -0.00973913 0.102973 -0.0471905 -0.0269539 0.123366 -0.0281184 -0.0451043 0.145184 
-0.00207534 -0.0617101 0.166557 0.0318478 -0.0765696 0.187426 0.0706053 -0.0868657 0.205939 
0.115296 -0.0915612 0.22156 0.15956 -0.0908448 0.235446 0.203258 -0.0829123 0.247019 
0.239935 -0.0716445 0.260404 0.266432 -0.0555406 0.276417 0.27834 -0.0388447 0.296466 
0.267212 -0.0212143 0.322887 0.23736 -0.00546949 0.347756 0.175261 0.00702798 0.369953 
0.104792 0.0156078 0.3794 0.0185662 0.0168134 0.364844 -0.00677434 0.0696039 -0.0134529 
-0.00866874 0.0733048 -0.0154424 -0.011873 0.0766376 -0.0165865 -0.0157733 0.0797749 -0.0172815 
-0.0207239 0.0819519 -0.0168407 -0.0262845 0.0835713 -0.0157405 -0.0324933 0.083907 -0.0132639 
-0.0391126 0.0834296 -0.00991563 -0.0459891 0.0815252 -0.00500079 -0.0530431 0.0786365 0.000994453 
-0.0599794 0.0742139 0.00875534 -0.0668276 0.0686409 0.0178405 -0.0730161 0.0613465 0.0289812 
-0.0786672 0.0526494 0.0417968 -0.082569 0.0419573 0.0570576 -0.0849232 0.0295005 0.0744815 
-0.0834484 0.0149381 0.0945912 -0.0782975 -0.00164567 0.117279 -0.0664078 -0.0196063 0.141984 
-0.0474984 -0.0390012 0.168791 -0.020098 -0.0573997 0.19505 0.016901 -0.0746716 0.220691 
0.059831 -0.0877573 0.242367 0.11004 -0.0957053 0.259178 0.159352 -0.0987687 0.272172 
0.20747 -0.0953193 0.280076 0.247125 -0.0896984 0.288904 0.27451 -0.0809289 0.299071 
0.286349 -0.0727961 0.313373 0.273641 -0.0656688 0.334207 0.242191 -0.0599696 0.353895 
0.178462 -0.0567299 0.37161 0.106577 -0.0543998 0.37724 0.0193358 -0.0537821 0.360121 
-0.00347978 0.0683489 -0.0168664 -0.0053822 0.0730969 -0.0191476 -0.00891793 0.0774719 -0.0204847 
-0.0133214 0.0816488 -0.0213202 -0.0190176 0.0847502 -0.0208712 -0.0254644 0.0872271 -0.0196763 
-0.0327073 0.0882968 -0.0169229 -0.0404544 0.0884752 -0.0131824 -0.0485615 0.0871469 -0.00767821 
-0.056917 0.0847794 -0.000957621 -0.0652766 0.0808471 0.00774568 -0.0736393 0.0757411 0.017936 
-0.0815153 0.068895 0.030465 -0.0889947 0.0606312 0.0448996 -0.0948824 0.0502915 0.0622122 
-0.099362 0.0381154 0.0820708 -0.0998924 0.0235862 0.105258 -0.0966316 0.00679783 0.13164 
-0.085808 -0.0118443 0.160701 -0.0671064 -0.0324176 0.192553 -0.0383829 -0.0525529 0.223759 
0.00166968 -0.0721933 0.254235 0.0487549 -0.0880453 0.279106 0.104471 -0.0992478 0.297099 
0.158798 -0.106118 0.309141 0.211271 -0.107211 0.313248 0.253814 -0.107322 0.31735 
0.281957 -0.106006 0.321446 0.293623 -0.106574 0.329743 0.279275 -0.110115 0.344671 
0.246265 -0.114619 0.358864 0.181118 -0.120783 0.37179 0.108082 -0.124804 0.373405 
0.0201978 -0.124791 0.353727 0.00192729 0.0652804 -0.0219108 0.000180531 0.0714718 -0.0245988 
-0.00370547 0.0772241 -0.0262238 -0.00872795 0.082743 -0.0272841 -0.0153418 0.0870035 -0.0268674 
-0.0228797 0.0905333 -0.0255933 -0.0313237 0.0925242 -0.0225278 -0.0403416 0.0935406 -0.0183279 
-0.0497479 0.0930293 -0.0121391 -0.0594219 0.0914645 -0.00457876 -0.0691542 0.0884324 0.0051652 
-0.07893 0.0843 0.0165469 -0.0883695 0.0786242 0.030488 -0.0975348 0.071691 0.0465147 
-0.105335 0.0629345 0.0657657 -0.111929 0.052565 0.0878692 -0.11466 0.0400569 0.1139 
-0.113684 0.0254959 0.143701 -0.104616 0.00904978 0.176957 -0.087119 -0.00936 0.213812 
-0.0582763 -0.0279121 0.250101 -0.0166085 -0.0466251 0.285752 0.0330384 -0.0627679 0.313836 
0.0924775 -0.0757564 0.332631 0.149735 -0.0858532 0.342644 0.204082 -0.0920943 0.340946 
0.246927 -0.0984166 0.337832 0.273094 -0.104856 0.332667 0.28274 -0.113465 0.331227 
0.2663 -0.125497 0.335669 0.233137 -0.137671 0.339853 0.171172 -0.150089 0.343591 
0.10247 -0.158626 0.338444 0.0210847 -0.159861 0.316572 0.00747212 0.0620937 -0.0270615 
0.00589169 0.0697543 -0.0301639 0.00165419 0.0769056 -0.032083 -0.0039949 0.0837865 -0.0333734 
-0.0115376 0.0892213 -0.0329919 -0.0201799 0.0938166 -0.0316394 -0.0298359 0.0967411 -0.0282596 
-0.040134 0.0986073 -0.0235959 -0.0508438 0.0989287 -0.0167163 -0.0618376 0.0981848 -0.00830874 
-0.0729391 0.0960798 0.00248229 -0.0841215 0.092954 0.0150609 -0.0951163 0.0884957 0.0304158 
-0.105958 0.0829515 0.0480327 -0.115667 0.0758584 0.0692149 -0.124374 0.067395 0.0935509 
-0.129319 0.0570378 0.12241 -0.130653 0.0448627 0.155612 -0.123386 0.0308003 0.193052 
-0.107158 0.0147719 0.234907 -0.0782746 -0.00198043 0.27629 -0.0350852 -0.0195511 0.317138 
0.0170192 -0.0358233 0.348434 0.0800648 -0.0505018 0.368008 0.140117 -0.0637875 0.375921 
0.196176 -0.0752158 0.368286 0.239155 -0.0877813 0.357795 0.263168 -0.101996 0.34316 
0.270673 -0.118602 0.331741 0.252113 -0.138985 0.325398 0.218888 -0.158663 0.319278 
0.160405 -0.177128 0.313541 0.0963935 -0.190062 0.301454 0.0219733 -0.192587 0.277411 
0.0157735 0.057604 -0.0340737 0.0145184 0.0669773 -0.037709 0.0098165 0.0756308 -0.0400317 
0.0032834 0.0839019 -0.0416572 -0.00545351 0.0904893 -0.041365 -0.0154701 0.0960991 -0.0399594 
-0.0264946 0.0999463 -0.0362218 -0.0381575 0.102677 -0.0310073 -0.0501103 0.103935 -0.0233187 
-0.0622632 0.104177 -0.0139238 -0.0744237 0.10329 -0.00199445 -0.08659 0.101555 0.0118358 
-0.0985721 0.0988702 0.0285019 -0.110404 0.0954105 0.0474788 -0.121219 0.0909267 0.0700554 
-0.131135 0.0855372 0.0958164 -0.137431 0.0788758 0.126188 -0.140253 0.0709935 0.160985 
-0.134448 0.0616735 0.200167 -0.119657 0.050856 0.243918 -0.0919164 0.0388791 0.287091 
-0.0495377 0.0255915 0.32961 0.00191332 0.0117453 0.361609 0.0644984 -0.00278673 0.380696 
0.123667 -0.0180519 0.386679 0.178279 -0.0342946 0.375188 0.219428 -0.0523271 0.359845 
0.241056 -0.0729548 0.338917 0.247064 -0.0951966 0.320604 0.22841 -0.119987 0.306417 
0.197133 -0.143096 0.292801 0.144116 -0.16331 0.280167 0.0864555 -0.177731 0.263 
0.0200534 -0.181249 0.237299 0.0243199 0.0529985 -0.0412513 0.0234043 0.0641062 -0.04543 
0.0182279 0.074271 -0.0481661 0.0107879 0.0839348 -0.050136 0.000833235 0.0916729 -0.0499381 
-0.0105816 0.0982927 -0.0484814 -0.0229885 0.103062 -0.0443821 -0.0360237 0.106658 -0.0386092 
-0.0492142 0.108862 -0.030101 -0.0625118 0.110105 -0.0197064 -0.0757038 0.110461 -0.00663062 
-0.0888165 0.110152 0.00845603 -0.101735 0.109289 0.0264244 -0.114496 0.107976 0.0467407 
-0.126346 0.106186 0.070664 -0.13739 0.103974 0.0977782 -0.144961 0.101145 0.129544 
-0.149198 0.0977254 0.165776 -0.144826 0.0933575 0.206484 -0.131486 0.0880023 0.251855 
-0.104993 0.0810653 0.296524 -0.0636323 0.0723401 0.340401 -0.0131113 0.0611469 0.372879 
0.0486517 0.0469247 0.391368 0.10661 0.0297874 0.395435 0.159493 0.0087635 0.380272 
0.198638 -0.0146669 0.360302 0.21786 -0.0415866 0.333364 0.222429 -0.069254 0.30843 
0.203862 -0.0981017 0.286663 0.174712 -0.12428 0.265801 0.127336 -0.14586 0.246498 
0.0761742 -0.161509 0.224416 0.0178839 -0.165994 0.197103 0.0356604 0.049805 -0.0500588 
0.0350655 0.0618977 -0.0548558 0.0291477 0.0728175 -0.0581023 0.020402 0.0831142 -0.0605251 
0.00895068 0.0914095 -0.0604806 -0.00407162 0.0985426 -0.0590034 -0.0178965 0.103913 -0.0544875 
-0.0322296 0.108167 -0.0480471 -0.0464229 0.111246 -0.0385677 -0.0605199 0.113514 -0.0269924 
-0.0742436 0.115231 -0.0126425 -0.0876874 0.116534 0.00378845 -0.10077 0.117718 0.0229685 
-0.113557 0.118804 0.0443885 -0.125384 0.119924 0.0690583 -0.136361 0.121075 0.0966028 
-0.143985 0.122146 0.12818 -0.148389 0.123143 0.163629 -0.144689 0.123533 0.202706 
-0.132547 0.123292 0.245564 -0.10827 0.121065 0.287176 -0.0702732 0.116591 0.327379 
-0.0239568 0.108149 0.356879 0.0325707 0.0948379 0.373242 0.0855794 0.0770463 0.376273 
0.133896 0.0532809 0.361527 0.169713 0.0268823 0.341771 0.187406 -0.00333454 0.314749 
0.192018 -0.0334221 0.288917 0.175979 -0.0633054 0.264964 0.150807 -0.0898241 0.241756 
0.10991 -0.110548 0.21983 0.0655919 -0.125458 0.19583 0.0148354 -0.129424 0.167924 
0.0473184 0.046772 -0.0590514 0.047042 0.0597645 -0.0644754 0.0403524 0.0713535 -0.0682432 
0.0302557 0.0821966 -0.0711312 0.0172761 0.0909817 -0.0712468 0.00262256 0.0985717 -0.0697527 
-0.0126242 0.104507 -0.064814 -0.0282467 0.109395 -0.0576936 -0.0434162 0.113341 -0.0472257 
-0.0582733 0.116637 -0.0344492 -0.0724721 0.119728 -0.0188106 -0.086177 0.122664 -0.00102547 
-0.0993348 0.125919 0.019356 -0.112047 0.129434 0.041853 -0.123731 0.13349 0.0672009 
-0.134505 0.138024 0.0950709 -0.142042 0.143003 0.126279 -0.146472 0.14841 0.160692 
-0.143358 0.153537 0.197781 -0.132385 0.158372 0.237657 -0.110433 0.160816 0.275694 
-0.0760671 0.160557 0.311651 -0.0343273 0.154878 0.337779 0.0164631 0.142547 0.351844 
0.0640978 0.124239 0.353939 0.107525 0.0979641 0.340075 0.139864 0.0688733 0.321082 
0.156126 0.0356997 0.29465 0.160951 0.00353353 0.26857 0.147716 -0.0270419 0.243044 
0.126735 -0.0535913 0.218046 0.09241 -0.0732071 0.193958 0.0549755 -0.0871546 0.16838 
0.011687 -0.0904327 0.139998 0.0591485 0.0482582 -0.0684782 0.0589578 0.0598258 -0.0745673 
0.0514164 0.0702264 -0.0789263 0.0399697 0.0800071 -0.0823662 0.0256398 0.0881539 -0.0826883 
0.00963592 0.0953519 -0.0812 -0.00666159 0.101311 -0.0757864 -0.023145 0.106486 -0.0678867 
-0.0387963 0.111125 -0.0562876 -0.0538736 0.115396 -0.042137 -0.0679573 0.119864 -0.0250564 
-0.0812957 0.124481 -0.00577819 -0.0938869 0.129781 0.0158561 -0.105869 0.135639 0.0394101 
-0.116799 0.14229 0.0652414 -0.1268 0.149642 0.0930872 -0.133835 0.157487 0.123303 
-0.138025 0.165806 0.155795 -0.135566 0.173609 0.189752 -0.126182 0.180875 0.225235 
-0.107387 0.185271 0.25834 -0.0779539 0.186422 0.288755 -0.0422209 0.181683 0.310672 
0.00124371 0.169716 0.322161 0.0423053 0.1516 0.323663 0.0801627 0.125288 0.311848 
0.108924 0.0963861 0.295295 0.124495 0.0637286 0.271874 0.130442 0.0325444 0.248156 
0.121194 0.00368632 0.223973 0.105294 -0.0208934 0.199924 0.0779359 -0.038105 0.176107 
0.0477112 -0.0497337 0.15094 0.0120906 -0.0508534 0.123232 0.0710025 0.050375 -0.0779656 
0.0708652 0.0601932 -0.0847251 0.0624607 0.0691464 -0.0896851 0.0496641 0.0776401 -0.093689 
0.0340089 0.0849912 -0.094224 0.0166938 0.0916789 -0.0927447 -0.000602613 0.0975865 -0.086849 
-0.0178872 0.103 -0.0781562 -0.0339512 0.108309 -0.0654057 -0.0491735 0.113545 -0.0498569 
-0.0630599 0.119392 -0.0313129 -0.0759442 0.125696 -0.0105224 -0.0878789 0.133038 0.0123719 
-0.0990399 0.141226 0.0369802 -0.109132 0.150424 0.0632676 -0.118278 0.160517 0.0910404 
-0.124754 0.171082 0.120177 -0.128667 0.182103 0.150624 -0.126874 0.192294 0.18129 
-0.119136 0.201624 0.212184 -0.103615 0.207592 0.240167 -0.0792954 0.20976 0.264858 
-0.0497688 0.205707 0.282447 -0.0138517 0.194019 0.291322 0.0204695 0.176195 0.292278 
0.0526624 0.15019 0.282675 0.0778309 0.121879 0.268797 0.092814 0.0902219 0.248723 
0.100011 0.0604466 0.227734 0.094915 0.0336422 0.205298 0.0842204 0.0113113 0.18258 
0.0638839 -0.00331532 0.159374 0.0409148 -0.0124358 0.134896 0.0129899 -0.011192 0.108023 
0.077812 0.05359 -0.0858042 0.0776718 0.0600305 -0.0932537 0.0690777 0.0662221 -0.0988035 
0.0559923 0.0722817 -0.103344 0.0400553 0.0779979 -0.104062 0.0224625 0.0835148 -0.102561 
0.0050866 0.0889259 -0.0961619 -0.0121519 0.0942698 -0.0866605 -0.0278604 0.100066 -0.0727358 
-0.0425136 0.106175 -0.0557603 -0.0555785 0.113336 -0.0356809 -0.0674523 0.121288 -0.0132734 
-0.0783358 0.130556 0.0110637 -0.0884124 0.140897 0.0369732 -0.0976695 0.152244 0.0640571 
-0.106202 0.164481 0.0921801 -0.112664 0.176784 0.120782 -0.11714 0.189148 0.149845 
-0.116946 0.199964 0.178083 -0.11189 0.209167 0.205462 -0.100313 0.214496 0.229509 
-0.0813657 0.215446 0.24979 -0.0577643 0.210454 0.263904 -0.0284513 0.19817 0.270452 
0.000218222 0.180577 0.270543 0.0280296 0.155904 0.262025 0.0506809 0.129557 0.249804 
0.0658504 0.10078 0.232211 0.0748506 0.0741179 0.21349 0.07411 0.0507934 0.192987 
0.0687066 0.0318762 0.171968 0.0552728 0.0205494 0.150059 0.0395648 0.0145498 0.126944 
0.0195759 0.018578 0.101559 0.0837808 0.056988 -0.093368 0.0836284 0.0597793 -0.101511 
0.0749568 0.0629904 -0.107649 0.0617594 0.0664246 -0.112721 0.0457146 0.0703661 -0.113618 
0.0280163 0.0746022 -0.11209 0.0107142 0.0794426 -0.105183 -0.00633707 0.0846656 -0.0948708 
-0.0215619 0.0909195 -0.0797678 -0.035527 0.0978844 -0.061361 -0.0476666 0.106351 -0.0397341 
-0.058437 0.115943 -0.0156923 -0.0682035 0.127118 0.0101183 -0.0771519 0.139582 0.03737 
-0.0855747 0.153011 0.0653072 -0.0935327 0.167294 0.0938508 -0.100072 0.181169 0.122009 
-0.10525 0.194651 0.149797 -0.106813 0.205797 0.175752 -0.10461 0.214509 0.199795 
-0.0970897 0.21883 0.220104 -0.0835574 0.218189 0.236193 -0.0658344 0.211987 0.246974 
-0.0429683 0.198963 0.251242 -0.0197689 0.18159 0.250416 0.00387466 0.15842 0.242797 
0.0241881 0.134265 0.232061 0.0396729 0.108683 0.216806 0.0505684 0.0854173 0.200277 
0.0542174 0.0658104 0.181737 0.0541194 0.0505011 0.162477 0.0475685 0.0425933 0.14198 
0.0391226 0.0398168 0.12034 0.0271098 0.0466994 0.0965521 0.0844583 0.0542393 -0.0979427 
0.0840577 0.0543777 -0.106471 0.0758446 0.0551448 -0.112887 0.0634812 0.0562459 -0.11818 
0.0483634 0.058438 -0.11906 0.0316463 0.0612636 -0.117377 0.0154278 0.0653319 -0.109995 
-0.00047493 0.0701872 -0.0990048 -0.0143638 0.0766438 -0.0829121 -0.0268638 0.0842047 -0.0633006 
-0.0374496 0.0937136 -0.0402317 -0.0466 0.104683 -0.0145696 -0.0549721 0.117499 0.0129608 
-0.0627103 0.131818 0.0420134 -0.0705825 0.147031 0.0715667 -0.0785734 0.163034 0.101563 
-0.0861525 0.178041 0.130548 -0.0933363 0.192091 0.158564 -0.097936 0.202843 0.183816 
-0.0998438 0.210161 0.206191 -0.0970258 0.212499 0.224215 -0.0888654 0.209209 0.237322 
-0.0762481 0.200862 0.245364 -0.0581608 0.186309 0.247191 -0.0386042 0.168636 0.244688 
-0.0170886 0.146803 0.236413 0.00254217 0.124922 0.225559 0.01944 0.102972 0.210965 
0.0328984 0.0835758 0.19524 0.0409263 0.0682132 0.177731 0.0459044 0.0568999 0.159531 
0.0456301 0.0525603 0.14014 0.0438294 0.0529359 0.119754 0.0391556 0.062187 0.0974948 
0.0841034 0.0502912 -0.101934 0.0834086 0.0479711 -0.110788 0.0757586 0.0463989 -0.117421 
0.0644136 0.045224 -0.122875 0.0504248 0.0456716 -0.1237 0.034901 0.0470614 -0.121837 
0.0199631 0.0503183 -0.113986 0.00539644 0.0547578 -0.102344 -0.00699019 0.0613674 -0.0852979 
-0.0178733 0.0694735 -0.064526 -0.0267829 0.0799739 -0.0400354 -0.0342123 0.0922698 -0.0127559 
-0.0411361 0.106674 0.0165424 -0.0476479 0.122797 0.0474855 -0.0550249 0.139735 0.0788036 
-0.0631673 0.157394 0.110454 -0.0719737 0.173447 0.140514 -0.0814175 0.187956 0.16905 
-0.0893038 0.198174 0.193909 -0.0955676 0.203922 0.214941 -0.0975784 0.204087 0.230964 
-0.0947814 0.197942 0.241325 -0.0871189 0.187267 0.246744 -0.0734851 0.171031 0.246097 
-0.0572148 0.152956 0.24177 -0.0374291 0.132427 0.232536 -0.0181581 0.112836 0.221251 
0.000366922 0.094604 0.206991 0.0165187 0.0791702 0.1918 0.0289233 0.0681547 0.175139 
0.0389326 0.060913 0.157861 0.0448167 0.0601708 0.139518 0.0495408 0.0636846 0.120343 
0.0520817 0.0752095 0.0995983 0.0822089 0.0406217 -0.103037 0.0806282 0.0372142 -0.1116 
0.0732785 0.0342477 -0.117927 0.062864 0.0315153 -0.123067 0.050262 0.0305186 -0.123579 
0.0363897 0.0305298 -0.121404 0.0233262 0.0327662 -0.113199 0.010775 0.0364119 -0.101177 
0.000560828 0.0426364 -0.0835357 -0.00804159 0.0506395 -0.0620199 -0.0146918 0.0614137 -0.0363446 
-0.0198777 0.0742664 -0.00754973 -0.0250141 0.0895275 0.0238169 -0.0301101 0.106751 0.0572791 
-0.0371703 0.124842 0.091459 -0.0459681 0.143701 0.126274 -0.0569438 0.16045 0.159174 
-0.0700103 0.175171 0.190235 -0.0826031 0.184545 0.216501 -0.0947024 0.188347 0.237772 
-0.10239 0.185815 0.252814 -0.10509 0.176124 0.260817 -0.101662 0.162468 0.263433 
-0.0907137 0.143947 0.259437 -0.0756828 0.125152 0.252096 -0.0552087 0.105992 0.240295 
-0.0342892 0.0889925 0.226981 -0.0127242 0.0751269 0.211474 0.00695183 0.064276 0.195427 
0.023645 0.0581853 0.178529 0.0382253 0.0553928 0.161251 0.0491667 0.0582805 0.143318 
0.0591629 0.064714 0.124764 0.0673801 0.0778218 0.10504 0.0799679 0.0296647 -0.103491 
0.0773683 0.0254786 -0.111622 0.0702598 0.0213303 -0.117526 0.060756 0.0172021 -0.122245 
0.0495987 0.0148287 -0.122386 0.0374812 0.0134742 -0.11987 0.0264256 0.014643 -0.111338 
0.0160427 0.0174097 -0.0989962 0.00815176 0.0231282 -0.0808402 0.00197942 0.0308823 -0.0586743 
-0.00228011 0.041769 -0.0318676 -0.00510503 0.0550052 -0.00158025 -0.00837776 0.0709582 0.0319225 
-0.0120154 0.089125 0.068045 -0.0187989 0.108241 0.105334 -0.0283655 0.128197 0.143654 
-0.0417224 0.145562 0.179789 -0.0587181 0.16044 0.213828 -0.0763369 0.168899 0.241905 
-0.0946048 0.170671 0.263771 -0.10816 0.165325 0.278063 -0.116387 0.151931 0.283794 
-0.117031 0.135149 0.283566 -0.108371 0.114207 0.276025 -0.0941189 0.0946207 0.265402 
-0.0724119 0.0768431 0.250671 -0.0493923 0.0625038 0.23497 -0.0244693 0.0531502 0.21786 
-0.00108214 0.0470218 0.200646 0.0198799 0.045986 0.183265 0.0389276 0.0477275 0.165779 
0.0546785 0.0542524 0.148113 0.0696649 0.0635565 0.130048 0.0832121 0.0780918 0.111232 
0.0770469 0.0194859 -0.101917 0.0730283 0.0144621 -0.109217 0.0657733 0.00918182 -0.114407 
0.0567989 0.00376531 -0.118475 0.0469236 -4.77811e-05 -0.118203 0.0365254 -0.00292985 -0.115411 
0.0276026 -0.00326962 -0.106813 0.0196144 -0.00199927 -0.0945362 0.0143507 0.0023282 -0.0763198 
0.0109659 0.00876405 -0.0540071 0.00950137 0.0185046 -0.0264146 0.00947693 0.0307236 0.0051378 
0.00847618 0.0459072 0.0409729 0.00667991 0.0635064 0.0802976 0.00028105 0.0822556 0.121828 
-0.0101894 0.102022 0.165308 -0.0265855 0.118979 0.206692 -0.0486704 0.133239 0.246062 
-0.0727045 0.140193 0.277936 -0.0987689 0.139538 0.302001 -0.11914 0.130988 0.316344 
-0.133076 0.113515 0.319698 -0.13685 0.0934432 0.316026 -0.128154 0.0701834 0.30373 
-0.111999 0.0504841 0.288499 -0.0858989 0.0355322 0.269352 -0.0582781 0.025512 0.249843 
-0.0284519 0.0226429 0.229808 -0.00064433 0.0228798 0.210254 0.0239761 0.0280212 0.191458 
0.0464389 0.0350331 0.172959 0.0651858 0.0452667 0.154971 0.0832199 0.0572756 0.136846 
0.099912 0.0726264 0.118463 0.0739516 0.00950658 -0.0998225 0.0684115 0.00363002 -0.10619 
0.0609104 -0.00276945 -0.110591 0.0523676 -0.00944672 -0.113948 0.0437328 -0.0147157 -0.113252 
0.0350447 -0.0191668 -0.110203 0.0282867 -0.0211282 -0.101605 0.0227512 -0.0215126 -0.0894917 
0.0201927 -0.018803 -0.0713316 0.0196872 -0.0139595 -0.0490012 0.0211213 -0.00568794 -0.0207114 
0.02401 0.0051548 0.0120478 0.0253859 0.0191943 0.0502657 0.0255292 0.0358384 0.0929314 
0.0195427 0.0538639 0.138993 0.00813375 0.0731113 0.188059 -0.0114703 0.0893972 0.235206 
-0.0389418 0.10284 0.280512 -0.0697473 0.108139 0.316692 -0.104026 0.104953 0.343366 
-0.131457 0.0931007 0.357966 -0.151148 0.0714505 0.358916 -0.157809 0.0480489 0.351646 
-0.148482 0.0224979 0.334286 -0.129736 0.00285894 0.314105 -0.098433 -0.00889726 0.290162 
-0.0655696 -0.0141729 0.266481 -0.0304442 -0.0100518 0.243182 0.00196574 -0.00302828 0.220988 
0.030088 0.00857805 0.200538 0.0556961 0.0210492 0.180819 0.076974 0.0350098 0.162359 
0.0975577 0.0496811 0.144033 0.116834 0.0656902 0.12596 0.0685893 0.00439573 -0.0967695 
0.0616338 -0.00304597 -0.102268 0.0538034 -0.0109965 -0.106031 0.0455081 -0.0192172 -0.108871 
0.0378748 -0.0262338 -0.108055 0.0306258 -0.0325512 -0.105114 0.0257815 -0.0366463 -0.0969949 
0.0224601 -0.0393338 -0.0855954 0.022431 -0.0391877 -0.0681355 0.0246724 -0.0370874 -0.0464959 
0.0289862 -0.0317361 -0.0182203 0.0348542 -0.0239463 0.0150324 0.0387971 -0.0129689 0.055118 
0.0411715 0.000605749 0.100771 0.0358611 0.0157487 0.151472 0.0237525 0.032279 0.206639 
0.000838486 0.04609 0.260565 -0.0324487 0.0572904 0.313298 -0.0707439 0.0603213 0.355254 
-0.114256 0.0548423 0.385982 -0.149118 0.0405055 0.401877 -0.174202 0.0161554 0.401005 
-0.182001 -0.00892363 0.390513 -0.168589 -0.0348974 0.368216 -0.143513 -0.0522519 0.342984 
-0.102888 -0.0581138 0.313838 -0.0619245 -0.056173 0.285424 -0.0204699 -0.0429184 0.258072 
0.0164222 -0.0276657 0.232517 0.0461105 -0.009258 0.209802 0.0726339 0.00864246 0.188365 
0.0937069 0.0256694 0.169128 0.114172 0.0422909 0.15035 0.133494 0.0581495 0.132437 
0.0625707 0.000694169 -0.093439 0.0542306 -0.00851891 -0.0980866 0.0460467 -0.0181454 -0.101254 
0.0379457 -0.0279915 -0.103636 0.0312447 -0.0368403 -0.102786 0.0253564 -0.0451099 -0.10006 
0.022353 -0.0514869 -0.0925578 0.0211767 -0.0566651 -0.0820314 0.0236261 -0.0593564 -0.0654581 
0.0285761 -0.0603324 -0.0447146 0.035764 -0.0583214 -0.016659 0.0446305 -0.05407 0.0168808 
0.0511957 -0.0467099 0.0586849 0.0558857 -0.0368168 0.107223 0.0513275 -0.0251813 0.162595 
0.0385883 -0.0120042 0.224012 0.012335 -0.00119049 0.285009 -0.0268921 0.00735448 0.345603 
-0.0728851 0.00794069 0.393759 -0.125926 0.00023648 0.428958 -0.168326 -0.0163476 0.44645 
-0.198698 -0.0429698 0.443924 -0.207129 -0.0692479 0.430321 -0.188631 -0.0951037 0.403123 
-0.156144 -0.10953 0.37281 -0.105005 -0.108716 0.338344 -0.0551134 -0.0988434 0.305034 
-0.00703158 -0.0758349 0.2734 0.034308 -0.0519353 0.244277 0.0650018 -0.0266289 0.21912 
0.0917952 -0.00330777 0.19582 0.111871 0.0165942 0.175719 0.131446 0.0349599 0.156416 
0.150079 0.0504338 0.138618 0.0524971 0.00167427 -0.0898589 0.043471 -0.00965422 -0.0940818 
0.0352039 -0.0211381 -0.0971219 0.0273398 -0.0327046 -0.0995335 0.0213401 -0.0434635 -0.0992014 
0.016423 -0.0537535 -0.0972761 0.014732 -0.0626022 -0.0910872 0.0150843 -0.0705379 -0.082198 
0.0193688 -0.0765497 -0.0674735 0.0263651 -0.0812347 -0.0487246 0.0358455 -0.0834579 -0.0222589 
0.047189 -0.0838346 0.00999444 0.0560627 -0.0814207 0.0516659 0.0629241 -0.0767328 0.101011 
0.0593384 -0.0701755 0.158814 0.046511 -0.0619644 0.224097 0.0178316 -0.0551827 0.290046 
-0.0260657 -0.0497732 0.356634 -0.0784807 -0.0505575 0.410129 -0.139768 -0.0577936 0.449984 
-0.188361 -0.0723799 0.470546 -0.222605 -0.0952753 0.469298 -0.229362 -0.117033 0.455934 
-0.202386 -0.137393 0.427698 -0.159148 -0.145388 0.395354 -0.0942289 -0.136894 0.357533 
-0.0338175 -0.119663 0.320616 0.0200574 -0.0897632 0.285008 0.0640504 -0.0603572 0.252545 
0.0924406 -0.0317313 0.225047 0.116369 -0.00615976 0.200025 0.132612 0.0141515 0.179269 
0.148728 0.0322187 0.159673 0.164605 0.0460619 0.142259 0.0411082 0.00417273 -0.0861979 
0.0316229 -0.00938273 -0.0901342 0.0233601 -0.0227828 -0.0931984 0.0157468 -0.0361004 -0.0957991 
0.0103736 -0.0487948 -0.0961635 0.00630126 -0.0611273 -0.0952292 0.00575128 -0.0725092 -0.0905787 
0.00743219 -0.083289 -0.0835746 0.013343 -0.0927782 -0.0710108 0.022171 -0.101377 -0.0546127 
0.0337552 -0.108124 -0.0301813 0.0474066 -0.113483 0.000275208 0.0584872 -0.116446 0.0412138 
0.0674731 -0.117458 0.0906932 0.0649312 -0.116488 0.150199 0.0521915 -0.113766 0.218574 
0.0213824 -0.111352 0.288788 -0.0267735 -0.109233 0.360765 -0.0851966 -0.11104 0.419319 
-0.154315 -0.116934 0.463889 -0.208665 -0.128146 0.488 -0.24632 -0.145369 0.488982 
-0.250656 -0.16075 0.476943 -0.214101 -0.173871 0.448922 -0.15903 -0.174298 0.415537 
-0.0792717 -0.157799 0.374998 -0.00782374 -0.133396 0.334891 0.0515736 -0.0975332 0.29541 
0.0976383 -0.0636393 0.259681 0.122652 -0.0328548 0.229874 0.142697 -0.006061 0.203177 
0.154188 0.0138598 0.181834 0.166012 0.0309661 0.162018 0.178464 0.0427746 0.145076 
0.0258177 0.00886495 -0.082476 0.0166351 -0.00644646 -0.086681 0.00870259 -0.0213291 -0.0903169 
0.00143409 -0.035984 -0.0936505 -0.00354612 -0.0501807 -0.0952962 -0.00719763 -0.0641114 -0.095962 
-0.00724558 -0.0775738 -0.0935989 -0.00501126 -0.0907396 -0.0893176 0.00166133 -0.103275 -0.0800513 
0.0113948 -0.115376 -0.067347 0.0242263 -0.126276 -0.0467499 0.0393812 -0.136275 -0.0202333 
0.0521795 -0.144247 0.0172555 0.0630575 -0.15057 0.0636844 0.0621091 -0.154591 0.121077 
0.0506987 -0.156576 0.188169 0.0202981 -0.157171 0.258135 -0.0283332 -0.156431 0.33086 
-0.0882198 -0.156098 0.39134 -0.159831 -0.15619 0.439065 -0.215718 -0.157886 0.467473 
-0.253831 -0.161393 0.474045 -0.254831 -0.162849 0.467508 -0.210285 -0.161786 0.444884 
-0.146051 -0.152117 0.415141 -0.0555687 -0.130971 0.375904 0.0230581 -0.105222 0.336052 
0.0844939 -0.0727969 0.295311 0.129936 -0.04283 0.258539 0.150124 -0.0167439 0.228034 
0.165253 0.0057125 0.201017 0.17167 0.021918 0.180005 0.178879 0.0354892 0.160771 
0.187583 0.044102 0.144881 0.00911823 0.0143494 -0.0787322 0.000513649 -0.0025479 -0.0834062 
-0.00697101 -0.0187565 -0.0878116 -0.0138607 -0.0345992 -0.0920745 -0.0185323 -0.0501418 -0.0952129 